<?xml version="1.0" encoding="UTF-8"?>

<!-- generated on 2025-10-20 17:19:52 by 
<Configuration xmlns:xsi="http://www.w3.org/2001/XMLSchema-instance" xsi:noNamespaceSchemaLocation="http://sumo.dlr.de/xsd/Configuration.xsd">

    <input>
        <net-file value="/home/julesbompard/Documents/Projets/sumo-experiments/src/sumo_experiments/preset_networks/lille/lille.net.xml"/>
        <route-files value="/home/julesbompard/Documents/Projets/sumo-experiments/src/sumo_experiments/preset_networks/lille/lille_22046.rou.xml"/>
        <additional-files value="/home/julesbompard/Documents/Projets/sumo-experiments/src/sumo_experiments/preset_networks/lille/lille_detectors.add.xml,/home/julesbompard/Documents/Projets/sumo-experiments/src/sumo_experiments/preset_networks/lille/ lille.tll.xml"/>
    </input>

    <output>
        <tripinfo-output value="/home/julesbompard/Documents/Projets/sumo-experiments/src/sumo_experiments/preset_networks/lille/tripinfos.xml"/>
    </output>

    <processing>
        <threads value="8"/>
        <time-to-teleport value="150"/>
    </processing>

    <report>
        <log value="/home/julesbompard/Documents/Projets/sumo-experiments/src/sumo_experiments/preset_networks/lille/sumo_log.txt"/>
        <no-step-log value="true"/>
    </report>

    <random_number>
        <random value="true"/>
    </random_number>

    <gui_only>
        <gui-settings-file value="/home/julesbompard/Documents/Projets/sumo-experiments/src/sumo_experiments/preset_networks/lille/settings.gui.xml"/>
    </gui_only>

</Configuration>
-->

<tripinfos xmlns:xsi="http://www.w3.org/2001/XMLSchema-instance" xsi:noNamespaceSchemaLocation="http://sumo.dlr.de/xsd/tripinfo_file.xsd">
    <tripinfo id="772.0" depart="15.00" departLane="670522617#0_0" departPos="5.10" departSpeed="0.00" departDelay="0.00" arrival="95.00" arrivalLane="276423925_0" arrivalPos="79.56" arrivalSpeed="17.80" duration="80.00" routeLength="1141.01" waitingTime="0.00" waitingCount="0" stopTime="0.00" timeLoss="13.22" rerouteNo="1" devices="tripinfo_772.0 routing_772.0" vType="car0" speedFactor="0.93" vaporized=""/>
    <tripinfo id="1212.0" depart="21.00" departLane="1252597600#0_1" departPos="5.10" departSpeed="0.00" departDelay="0.00" arrival="100.00" arrivalLane="177480211#1_0" arrivalPos="394.87" arrivalSpeed="18.84" duration="79.00" routeLength="1049.23" waitingTime="0.00" waitingCount="0" stopTime="0.00" timeLoss="26.76" rerouteNo="1" devices="tripinfo_1212.0 routing_1212.0" vType="car0" speedFactor="0.97" vaporized="traci"/>
    <tripinfo id="1223.0" depart="9.00" departLane="1252597600#0_1" departPos="5.10" departSpeed="0.00" departDelay="0.00" arrival="100.00" arrivalLane="177480211#1_0" arrivalPos="478.53" arrivalSpeed="22.36" duration="91.00" routeLength="1132.89" waitingTime="1.00" waitingCount="1" stopTime="0.00" timeLoss="42.92" rerouteNo="1" devices="tripinfo_1223.0 routing_1223.0" vType="car0" speedFactor="1.15" vaporized="traci"/>
    <tripinfo id="1262.0" depart="68.00" departLane="1252597600#0_1" departPos="5.10" departSpeed="0.00" departDelay="2.00" arrival="100.00" arrivalLane="694271872#4_1" arrivalPos="4.27" arrivalSpeed="17.81" duration="32.00" routeLength="291.30" waitingTime="0.00" waitingCount="0" stopTime="0.00" timeLoss="20.30" rerouteNo="1" devices="tripinfo_1262.0 routing_1262.0" vType="car0" speedFactor="0.98" vaporized="traci"/>
    <tripinfo id="1271.0" depart="63.00" departLane="1252597600#0_1" departPos="5.10" departSpeed="0.00" departDelay="0.00" arrival="100.00" arrivalLane="22662398_0" arrivalPos="18.99" arrivalSpeed="14.24" duration="37.00" routeLength="390.38" waitingTime="0.00" waitingCount="0" stopTime="0.00" timeLoss="21.22" rerouteNo="1" devices="tripinfo_1271.0 routing_1271.0" vType="car0" speedFactor="1.03" vaporized="traci"/>
    <tripinfo id="1318.0" depart="66.00" departLane="95426996#0_0" departPos="5.10" departSpeed="0.00" departDelay="0.00" arrival="100.00" arrivalLane="100857054#2_0" arrivalPos="89.86" arrivalSpeed="9.20" duration="34.00" routeLength="237.63" waitingTime="0.00" waitingCount="0" stopTime="0.00" timeLoss="10.05" rerouteNo="1" devices="tripinfo_1318.0 routing_1318.0" vType="car0" speedFactor="1.12" vaporized="traci"/>
    <tripinfo id="1323.0" depart="71.00" departLane="95426996#0_0" departPos="5.10" departSpeed="0.00" departDelay="0.00" arrival="100.00" arrivalLane="19906586#0_0" arrivalPos="11.16" arrivalSpeed="15.44" duration="29.00" routeLength="241.17" waitingTime="0.00" waitingCount="0" stopTime="0.00" timeLoss="10.17" rerouteNo="1" devices="tripinfo_1323.0 routing_1323.0" vType="car0" speedFactor="1.13" vaporized="traci"/>
    <tripinfo id="1332.0" depart="44.00" departLane="95426996#0_0" departPos="5.10" departSpeed="0.00" departDelay="0.00" arrival="100.00" arrivalLane="100857054#2_0" arrivalPos="219.84" arrivalSpeed="7.06" duration="56.00" routeLength="367.61" waitingTime="0.00" waitingCount="0" stopTime="0.00" timeLoss="8.78" rerouteNo="1" devices="tripinfo_1332.0 routing_1332.0" vType="car0" speedFactor="0.89" vaporized="traci"/>
    <tripinfo id="1362.0" depart="55.00" departLane="95426996#0_0" departPos="5.10" departSpeed="0.00" departDelay="0.00" arrival="100.00" arrivalLane="100857054#2_0" arrivalPos="184.73" arrivalSpeed="8.78" duration="45.00" routeLength="332.50" waitingTime="0.00" waitingCount="0" stopTime="0.00" timeLoss="9.49" rerouteNo="1" devices="tripinfo_1362.0 routing_1362.0" vType="car0" speedFactor="1.08" vaporized="traci"/>
    <tripinfo id="1428.0" depart="17.00" departLane="220886686_1" departPos="5.10" departSpeed="0.00" departDelay="0.00" arrival="100.00" arrivalLane="24778652#0_0" arrivalPos="28.11" arrivalSpeed="14.08" duration="83.00" routeLength="982.53" waitingTime="0.00" waitingCount="0" stopTime="0.00" timeLoss="28.66" rerouteNo="1" devices="tripinfo_1428.0 routing_1428.0" vType="car0" speedFactor="1.03" vaporized="traci"/>
    <tripinfo id="1463.0" depart="49.00" departLane="220886686_1" departPos="5.10" departSpeed="0.00" departDelay="0.00" arrival="100.00" arrivalLane="51137634#1_0" arrivalPos="316.93" arrivalSpeed="19.24" duration="51.00" routeLength="631.50" waitingTime="0.00" waitingCount="0" stopTime="0.00" timeLoss="13.70" rerouteNo="1" devices="tripinfo_1463.0 routing_1463.0" vType="car0" speedFactor="1.00" vaporized="traci"/>
    <tripinfo id="1469.0" depart="38.00" departLane="220886686_0" departPos="5.10" departSpeed="0.00" departDelay="0.00" arrival="100.00" arrivalLane="177624329_0" arrivalPos="14.31" arrivalSpeed="0.60" duration="62.00" routeLength="204.15" waitingTime="32.00" waitingCount="1" stopTime="0.00" timeLoss="48.78" rerouteNo="1" devices="tripinfo_1469.0 routing_1469.0" vType="car0" speedFactor="1.07" vaporized="traci"/>
    <tripinfo id="1474.0" depart="83.00" departLane="220886686_0" departPos="5.10" departSpeed="0.00" departDelay="0.00" arrival="100.00" arrivalLane="50363138_0" arrivalPos="15.60" arrivalSpeed="9.37" duration="17.00" routeLength="77.71" waitingTime="0.00" waitingCount="0" stopTime="0.00" timeLoss="12.12" rerouteNo="1" devices="tripinfo_1474.0 routing_1474.0" vType="car0" speedFactor="1.03" vaporized="traci"/>
    <tripinfo id="151.0" depart="67.00" departLane="691053721-AddedOffRampEdge_2" departPos="5.10" departSpeed="0.00" departDelay="0.00" arrival="100.00" arrivalLane="177271831_0" arrivalPos="224.68" arrivalSpeed="19.35" duration="33.00" routeLength="321.22" waitingTime="0.00" waitingCount="0" stopTime="0.00" timeLoss="15.86" rerouteNo="1" devices="tripinfo_151.0 routing_151.0" vType="car0" speedFactor="1.02" vaporized="traci"/>
    <tripinfo id="1760.0" depart="99.00" departLane="220886686_1" departPos="5.10" departSpeed="0.00" departDelay="0.00" arrival="100.00" arrivalLane="220886686_1" arrivalPos="5.10" arrivalSpeed="0.00" duration="1.00" routeLength="0.00" waitingTime="0.00" waitingCount="0" stopTime="0.00" timeLoss="0.00" rerouteNo="1" devices="tripinfo_1760.0 routing_1760.0" vType="car0" speedFactor="1.07" vaporized="traci"/>
    <tripinfo id="1968.0" depart="67.00" departLane="114800016#1-AddedOffRampEdge_0" departPos="5.10" departSpeed="0.00" departDelay="0.00" arrival="100.00" arrivalLane=":cluster3075917661_cluster833383615_cluster1299481178_3075917568_3075917577_849029639_2_1" arrivalPos="21.90" arrivalSpeed="20.17" duration="33.00" routeLength="326.92" waitingTime="0.00" waitingCount="0" stopTime="0.00" timeLoss="19.02" rerouteNo="1" devices="tripinfo_1968.0 routing_1968.0" vType="car0" speedFactor="1.14" vaporized="traci"/>
    <tripinfo id="2001.0" depart="13.00" departLane="39178016_0" departPos="5.10" departSpeed="0.00" departDelay="0.00" arrival="100.00" arrivalLane="766710290#29_0" arrivalPos="123.58" arrivalSpeed="0.71" duration="87.00" routeLength="420.97" waitingTime="24.00" waitingCount="1" stopTime="0.00" timeLoss="35.29" rerouteNo="1" devices="tripinfo_2001.0 routing_2001.0" vType="car0" speedFactor="1.02" vaporized="traci"/>
    <tripinfo id="2041.0" depart="85.00" departLane="484396461_0" departPos="5.10" departSpeed="0.00" departDelay="0.00" arrival="100.00" arrivalLane="25674687#1_0" arrivalPos="20.00" arrivalSpeed="8.56" duration="15.00" routeLength="62.06" waitingTime="0.00" waitingCount="0" stopTime="0.00" timeLoss="8.32" rerouteNo="1" devices="tripinfo_2041.0 routing_2041.0" vType="car0" speedFactor="0.89" vaporized="traci"/>
    <tripinfo id="2055.0" depart="6.00" departLane="41467496#0_0" departPos="5.10" departSpeed="0.00" departDelay="0.00" arrival="100.00" arrivalLane="306136479#7_0" arrivalPos="53.81" arrivalSpeed="6.02" duration="94.00" routeLength="1034.65" waitingTime="0.00" waitingCount="0" stopTime="0.00" timeLoss="13.44" rerouteNo="1" devices="tripinfo_2055.0 routing_2055.0" vType="car0" speedFactor="1.05" vaporized="traci"/>
    <tripinfo id="2201.0" depart="57.00" departLane="25674687#0_0" departPos="5.10" departSpeed="0.00" departDelay="0.00" arrival="100.00" arrivalLane=":208907749_0_0" arrivalPos="10.90" arrivalSpeed="13.38" duration="43.00" routeLength="421.69" waitingTime="0.00" waitingCount="0" stopTime="0.00" timeLoss="11.15" rerouteNo="1" devices="tripinfo_2201.0 routing_2201.0" vType="car0" speedFactor="0.98" vaporized="traci"/>
    <tripinfo id="2210.0" depart="30.00" departLane="-147572086#4_0" departPos="5.10" departSpeed="0.00" departDelay="0.00" arrival="100.00" arrivalLane="131751140#0_0" arrivalPos="8.97" arrivalSpeed="5.27" duration="70.00" routeLength="235.74" waitingTime="20.00" waitingCount="1" stopTime="0.00" timeLoss="36.82" rerouteNo="1" devices="tripinfo_2210.0 routing_2210.0" vType="car0" speedFactor="0.90" vaporized="traci"/>
    <tripinfo id="222.0" depart="80.00" departLane="114800016#1_0" departPos="5.10" departSpeed="0.00" departDelay="0.00" arrival="100.00" arrivalLane="114800016#1_0" arrivalPos="112.85" arrivalSpeed="11.13" duration="20.00" routeLength="107.75" waitingTime="0.00" waitingCount="0" stopTime="0.00" timeLoss="13.71" rerouteNo="1" devices="tripinfo_222.0 routing_222.0" vType="car0" speedFactor="1.05" vaporized="traci"/>
    <tripinfo id="2293.0" depart="41.00" departLane="-95631681#5_0" departPos="5.10" departSpeed="0.00" departDelay="0.00" arrival="100.00" arrivalLane="691918749#7_0" arrivalPos="8.28" arrivalSpeed="6.16" duration="59.00" routeLength="368.09" waitingTime="0.00" waitingCount="0" stopTime="0.00" timeLoss="7.65" rerouteNo="1" devices="tripinfo_2293.0 routing_2293.0" vType="car0" speedFactor="0.89" vaporized="traci"/>
    <tripinfo id="2412.0" depart="3.00" departLane="103066476#1_0" departPos="5.10" departSpeed="0.00" departDelay="0.00" arrival="100.00" arrivalLane="-150677328#4_0" arrivalPos="106.02" arrivalSpeed="0.00" duration="97.00" routeLength="570.98" waitingTime="9.00" waitingCount="1" stopTime="0.00" timeLoss="17.20" rerouteNo="1" devices="tripinfo_2412.0 routing_2412.0" vType="car0" speedFactor="0.94" vaporized="traci"/>
    <tripinfo id="2436.0" depart="89.00" departLane="1039721002_0" departPos="0.20" departSpeed="0.00" departDelay="0.00" arrival="100.00" arrivalLane="673633320#0_0" arrivalPos="32.87" arrivalSpeed="6.70" duration="11.00" routeLength="36.22" waitingTime="0.00" waitingCount="0" stopTime="0.00" timeLoss="5.21" rerouteNo="1" devices="tripinfo_2436.0 routing_2436.0" vType="car0" speedFactor="0.91" vaporized="traci"/>
    <tripinfo id="2465.0" depart="56.00" departLane="-766710290#1_0" departPos="5.10" departSpeed="0.00" departDelay="0.00" arrival="100.00" arrivalLane="802835940#7_1" arrivalPos="38.88" arrivalSpeed="9.38" duration="44.00" routeLength="282.22" waitingTime="0.00" waitingCount="0" stopTime="0.00" timeLoss="9.65" rerouteNo="1" devices="tripinfo_2465.0 routing_2465.0" vType="car0" speedFactor="0.94" vaporized="traci"/>
    <tripinfo id="2475.0" depart="18.00" departLane="22324796_0" departPos="5.10" departSpeed="0.00" departDelay="0.00" arrival="100.00" arrivalLane="84818889_0" arrivalPos="127.81" arrivalSpeed="7.80" duration="82.00" routeLength="362.48" waitingTime="21.00" waitingCount="1" stopTime="0.00" timeLoss="35.70" rerouteNo="1" devices="tripinfo_2475.0 routing_2475.0" vType="car0" speedFactor="0.96" vaporized="traci"/>
    <tripinfo id="2483.0" depart="68.00" departLane="25674687#0_0" departPos="5.10" departSpeed="0.00" departDelay="0.00" arrival="100.00" arrivalLane="19906586#2_0" arrivalPos="27.26" arrivalSpeed="12.81" duration="32.00" routeLength="264.91" waitingTime="0.00" waitingCount="0" stopTime="0.00" timeLoss="10.57" rerouteNo="1" devices="tripinfo_2483.0 routing_2483.0" vType="car0" speedFactor="0.93" vaporized="traci"/>
    <tripinfo id="2486.0" depart="61.00" departLane="180913152#1_1" departPos="5.10" departSpeed="0.00" departDelay="0.00" arrival="100.00" arrivalLane="167174575#0_0" arrivalPos="41.87" arrivalSpeed="15.13" duration="39.00" routeLength="343.32" waitingTime="0.00" waitingCount="0" stopTime="0.00" timeLoss="14.46" rerouteNo="1" devices="tripinfo_2486.0 routing_2486.0" vType="car0" speedFactor="0.99" vaporized="traci"/>
    <tripinfo id="2503.0" depart="34.00" departLane="97596157#0_0" departPos="5.10" departSpeed="0.00" departDelay="0.00" arrival="100.00" arrivalLane="16207741#1_0" arrivalPos="64.60" arrivalSpeed="0.00" duration="66.00" routeLength="214.32" waitingTime="29.00" waitingCount="1" stopTime="0.00" timeLoss="41.23" rerouteNo="1" devices="tripinfo_2503.0 routing_2503.0" vType="car0" speedFactor="1.09" vaporized="traci"/>
    <tripinfo id="2604.0" depart="65.00" departLane="42497968#0_0" departPos="5.10" departSpeed="0.00" departDelay="0.00" arrival="100.00" arrivalLane="-53755635#1_0" arrivalPos="61.93" arrivalSpeed="7.99" duration="35.00" routeLength="217.87" waitingTime="0.00" waitingCount="0" stopTime="0.00" timeLoss="6.92" rerouteNo="1" devices="tripinfo_2604.0 routing_2604.0" vType="car0" speedFactor="0.97" vaporized="traci"/>
    <tripinfo id="2702.0" depart="55.00" departLane="42736757#2_0" departPos="5.10" departSpeed="0.00" departDelay="0.00" arrival="100.00" arrivalLane="766710290#23_0" arrivalPos="12.07" arrivalSpeed="8.79" duration="45.00" routeLength="309.92" waitingTime="0.00" waitingCount="0" stopTime="0.00" timeLoss="9.21" rerouteNo="1" devices="tripinfo_2702.0 routing_2702.0" vType="car0" speedFactor="1.08" vaporized="traci"/>
    <tripinfo id="2754.0" depart="90.00" departLane="150682737#0_0" departPos="5.10" departSpeed="0.00" departDelay="0.00" arrival="100.00" arrivalLane="150682737#0_0" arrivalPos="31.60" arrivalSpeed="5.47" duration="10.00" routeLength="26.50" waitingTime="0.00" waitingCount="0" stopTime="0.00" timeLoss="6.14" rerouteNo="1" devices="tripinfo_2754.0 routing_2754.0" vType="car0" speedFactor="1.11" vaporized="traci"/>
    <tripinfo id="2814.0" depart="65.00" departLane="84821267_0" departPos="5.10" departSpeed="0.00" departDelay="0.00" arrival="100.00" arrivalLane="246363569#1_0" arrivalPos="80.91" arrivalSpeed="4.42" duration="35.00" routeLength="150.08" waitingTime="0.00" waitingCount="0" stopTime="0.00" timeLoss="5.48" rerouteNo="1" devices="tripinfo_2814.0 routing_2814.0" vType="car0" speedFactor="0.82" vaporized="traci"/>
    <tripinfo id="2821.0" depart="64.00" departLane="312521184#0_1" departPos="5.10" departSpeed="0.00" departDelay="0.00" arrival="100.00" arrivalLane="312521184#0_1" arrivalPos="37.13" arrivalSpeed="0.00" duration="36.00" routeLength="32.03" waitingTime="24.00" waitingCount="1" stopTime="0.00" timeLoss="31.69" rerouteNo="1" devices="tripinfo_2821.0 routing_2821.0" vType="car0" speedFactor="1.16" vaporized="traci"/>
    <tripinfo id="3115.0" depart="44.00" departLane="91560469#0_0" departPos="5.10" departSpeed="0.00" departDelay="0.00" arrival="100.00" arrivalLane="276335209#2_1" arrivalPos="110.02" arrivalSpeed="13.18" duration="56.00" routeLength="422.44" waitingTime="0.00" waitingCount="0" stopTime="0.00" timeLoss="9.63" rerouteNo="1" devices="tripinfo_3115.0 routing_3115.0" vType="car0" speedFactor="0.96" vaporized="traci"/>
    <tripinfo id="3117.0" depart="88.00" departLane="-151991095#1_0" departPos="5.10" departSpeed="0.00" departDelay="0.00" arrival="100.00" arrivalLane="-151991095#1_0" arrivalPos="47.26" arrivalSpeed="6.20" duration="12.00" routeLength="42.16" waitingTime="0.00" waitingCount="0" stopTime="0.00" timeLoss="6.41" rerouteNo="1" devices="tripinfo_3117.0 routing_3117.0" vType="car0" speedFactor="1.10" vaporized="traci"/>
    <tripinfo id="3135.0" depart="32.00" departLane="150682438#0_0" departPos="5.10" departSpeed="0.00" departDelay="0.00" arrival="100.00" arrivalLane="815430469#0_0" arrivalPos="40.28" arrivalSpeed="0.00" duration="68.00" routeLength="382.91" waitingTime="13.00" waitingCount="1" stopTime="0.00" timeLoss="25.72" rerouteNo="1" devices="tripinfo_3135.0 routing_3135.0" vType="car0" speedFactor="1.12" vaporized="traci"/>
    <tripinfo id="3194.0" depart="21.00" departLane="34297834_0" departPos="5.10" departSpeed="0.00" departDelay="0.00" arrival="100.00" arrivalLane="120970425#10_0" arrivalPos="7.07" arrivalSpeed="14.88" duration="79.00" routeLength="813.59" waitingTime="0.00" waitingCount="0" stopTime="0.00" timeLoss="17.83" rerouteNo="1" devices="tripinfo_3194.0 routing_3194.0" vType="car0" speedFactor="1.09" vaporized="traci"/>
    <tripinfo id="3301.0" depart="31.00" departLane="118972292#0_0" departPos="5.10" departSpeed="0.00" departDelay="0.00" arrival="100.00" arrivalLane="16207741#1_0" arrivalPos="57.10" arrivalSpeed="0.00" duration="69.00" routeLength="343.30" waitingTime="13.00" waitingCount="1" stopTime="0.00" timeLoss="21.13" rerouteNo="1" devices="tripinfo_3301.0 routing_3301.0" vType="car0" speedFactor="0.88" vaporized="traci"/>
    <tripinfo id="3302.0" depart="61.00" departLane="-147572086#1_0" departPos="5.10" departSpeed="0.00" departDelay="0.00" arrival="100.00" arrivalLane="103066477#0_0" arrivalPos="14.53" arrivalSpeed="6.43" duration="39.00" routeLength="173.95" waitingTime="3.00" waitingCount="1" stopTime="0.00" timeLoss="17.66" rerouteNo="1" devices="tripinfo_3302.0 routing_3302.0" vType="car0" speedFactor="1.03" vaporized="traci"/>
    <tripinfo id="3304.0" depart="84.00" departLane="23209096#0_0" departPos="5.10" departSpeed="0.00" departDelay="0.00" arrival="100.00" arrivalLane="23209096#2_0" arrivalPos="3.02" arrivalSpeed="8.65" duration="16.00" routeLength="72.88" waitingTime="0.00" waitingCount="0" stopTime="0.00" timeLoss="6.89" rerouteNo="1" devices="tripinfo_3304.0 routing_3304.0" vType="car0" speedFactor="1.08" vaporized="traci"/>
    <tripinfo id="3306.0" depart="23.00" departLane="50123504#0_0" departPos="5.10" departSpeed="0.00" departDelay="0.00" arrival="100.00" arrivalLane="91675900_0" arrivalPos="24.21" arrivalSpeed="0.00" duration="77.00" routeLength="486.09" waitingTime="18.00" waitingCount="1" stopTime="0.00" timeLoss="38.86" rerouteNo="1" devices="tripinfo_3306.0 routing_3306.0" vType="car0" speedFactor="1.01" vaporized="traci"/>
    <tripinfo id="3310.0" depart="94.00" departLane="-42268118#1_0" departPos="5.10" departSpeed="0.00" departDelay="0.00" arrival="100.00" arrivalLane="-42268118#1_0" arrivalPos="15.67" arrivalSpeed="3.55" duration="6.00" routeLength="10.57" waitingTime="0.00" waitingCount="0" stopTime="0.00" timeLoss="3.67" rerouteNo="1" devices="tripinfo_3310.0 routing_3310.0" vType="car0" speedFactor="0.95" vaporized="traci"/>
    <tripinfo id="3325.0" depart="65.00" departLane="95633525#0_0" departPos="5.10" departSpeed="0.00" departDelay="0.00" arrival="100.00" arrivalLane=":251059383_3_0" arrivalPos="1.00" arrivalSpeed="8.44" duration="35.00" routeLength="224.50" waitingTime="0.00" waitingCount="0" stopTime="0.00" timeLoss="13.16" rerouteNo="1" devices="tripinfo_3325.0 routing_3325.0" vType="car0" speedFactor="0.83" vaporized="traci"/>
    <tripinfo id="336.0" depart="69.00" departLane="691053721-AddedOffRampEdge_1" departPos="5.10" departSpeed="0.00" departDelay="4.00" arrival="100.00" arrivalLane="680921676_1" arrivalPos="75.46" arrivalSpeed="11.93" duration="31.00" routeLength="270.12" waitingTime="0.00" waitingCount="0" stopTime="0.00" timeLoss="18.02" rerouteNo="1" devices="tripinfo_336.0 routing_336.0" vType="car0" speedFactor="1.06" vaporized="traci"/>
    <tripinfo id="3363.0" depart="17.00" departLane="150950348#0_0" departPos="5.10" departSpeed="0.00" departDelay="0.00" arrival="100.00" arrivalLane="40554472_0" arrivalPos="24.82" arrivalSpeed="7.97" duration="83.00" routeLength="421.29" waitingTime="13.00" waitingCount="1" stopTime="0.00" timeLoss="29.88" rerouteNo="1" devices="tripinfo_3363.0 routing_3363.0" vType="car0" speedFactor="0.99" vaporized="traci"/>
    <tripinfo id="3396.0" depart="39.00" departLane="155591538#0_0" departPos="5.10" departSpeed="0.00" departDelay="0.00" arrival="100.00" arrivalLane="41403912#0_0" arrivalPos="163.67" arrivalSpeed="8.58" duration="61.00" routeLength="380.77" waitingTime="0.00" waitingCount="0" stopTime="0.00" timeLoss="7.12" rerouteNo="1" devices="tripinfo_3396.0 routing_3396.0" vType="car0" speedFactor="1.07" vaporized="traci"/>
    <tripinfo id="3615.0" depart="36.00" departLane="191002370#0_0" departPos="5.10" departSpeed="0.00" departDelay="0.00" arrival="100.00" arrivalLane="25674419#0_0" arrivalPos="209.52" arrivalSpeed="0.00" duration="64.00" routeLength="342.24" waitingTime="13.00" waitingCount="1" stopTime="0.00" timeLoss="22.16" rerouteNo="1" devices="tripinfo_3615.0 routing_3615.0" vType="car0" speedFactor="1.01" vaporized="traci"/>
    <tripinfo id="370.0" depart="17.00" departLane="691053721-AddedOffRampEdge_2" departPos="5.10" departSpeed="0.00" departDelay="4.00" arrival="100.00" arrivalLane="231933252#0_1" arrivalPos="6.56" arrivalSpeed="0.00" duration="83.00" routeLength="924.85" waitingTime="16.00" waitingCount="1" stopTime="0.00" timeLoss="33.11" rerouteNo="1" devices="tripinfo_370.0 routing_370.0" vType="car0" speedFactor="0.92" vaporized="traci"/>
    <tripinfo id="372.0" depart="12.00" departLane="691053721-AddedOffRampEdge_2" departPos="5.10" departSpeed="0.00" departDelay="0.00" arrival="100.00" arrivalLane="36701398_1" arrivalPos="73.60" arrivalSpeed="19.24" duration="88.00" routeLength="1357.99" waitingTime="0.00" waitingCount="0" stopTime="0.00" timeLoss="16.53" rerouteNo="1" devices="tripinfo_372.0 routing_372.0" vType="car0" speedFactor="0.99" vaporized="traci"/>
    <tripinfo id="375.0" depart="64.00" departLane="691053721-AddedOffRampEdge_1" departPos="5.10" departSpeed="0.00" departDelay="0.00" arrival="100.00" arrivalLane="34780250#0_0" arrivalPos="7.12" arrivalSpeed="15.67" duration="36.00" routeLength="399.45" waitingTime="0.00" waitingCount="0" stopTime="0.00" timeLoss="15.35" rerouteNo="1" devices="tripinfo_375.0 routing_375.0" vType="car0" speedFactor="0.94" vaporized="traci"/>
    <tripinfo id="528.0" depart="9.00" departLane="32391880_3" departPos="5.10" departSpeed="0.00" departDelay="0.00" arrival="100.00" arrivalLane="23499359_0" arrivalPos="349.27" arrivalSpeed="21.26" duration="91.00" routeLength="1753.77" waitingTime="0.00" waitingCount="0" stopTime="0.00" timeLoss="22.48" rerouteNo="1" devices="tripinfo_528.0 routing_528.0" vType="car0" speedFactor="1.10" vaporized="traci"/>
    <tripinfo id="589.0" depart="56.00" departLane="32391880_0" departPos="5.10" departSpeed="0.00" departDelay="0.00" arrival="100.00" arrivalLane="32391880_0" arrivalPos="610.49" arrivalSpeed="25.63" duration="44.00" routeLength="605.39" waitingTime="0.00" waitingCount="0" stopTime="0.00" timeLoss="19.65" rerouteNo="1" devices="tripinfo_589.0 routing_589.0" vType="car0" speedFactor="1.04" vaporized="traci"/>
    <tripinfo id="821.0" depart="7.00" departLane="669441008#0_1" departPos="5.10" departSpeed="0.00" departDelay="0.00" arrival="100.00" arrivalLane="672957493#1_0" arrivalPos="86.31" arrivalSpeed="0.00" duration="93.00" routeLength="520.53" waitingTime="19.00" waitingCount="2" stopTime="0.00" timeLoss="47.43" rerouteNo="1" devices="tripinfo_821.0 routing_821.0" vType="car0" speedFactor="0.77" vaporized="traci"/>
    <tripinfo id="952.0" depart="25.00" departLane="842421984_0" departPos="5.10" departSpeed="0.00" departDelay="0.00" arrival="100.00" arrivalLane="1008881202_1" arrivalPos="319.10" arrivalSpeed="18.04" duration="75.00" routeLength="1067.05" waitingTime="0.00" waitingCount="0" stopTime="0.00" timeLoss="15.24" rerouteNo="1" devices="tripinfo_952.0 routing_952.0" vType="car0" speedFactor="0.93" vaporized="traci"/>
    <tripinfo id="957.0" depart="30.00" departLane="842421984_0" departPos="5.10" departSpeed="0.00" departDelay="3.00" arrival="100.00" arrivalLane="1008881202_1" arrivalPos="218.34" arrivalSpeed="17.25" duration="70.00" routeLength="966.29" waitingTime="0.00" waitingCount="0" stopTime="0.00" timeLoss="14.10" rerouteNo="1" devices="tripinfo_957.0 routing_957.0" vType="car0" speedFactor="0.91" vaporized="traci"/>
    <tripinfo id="964.0" depart="3.00" departLane="842421984_0" departPos="5.10" departSpeed="0.00" departDelay="0.00" arrival="100.00" arrivalLane="681170636_0" arrivalPos="496.29" arrivalSpeed="22.00" duration="97.00" routeLength="1719.97" waitingTime="0.00" waitingCount="0" stopTime="0.00" timeLoss="18.12" rerouteNo="1" devices="tripinfo_964.0 routing_964.0" vType="car0" speedFactor="1.14" vaporized="traci"/>
    <tripinfo id="1222.0" depart="150.00" departLane="1252597600#0_1" departPos="5.10" departSpeed="0.00" departDelay="0.00" arrival="200.00" arrivalLane="177480211#0_0" arrivalPos="108.45" arrivalSpeed="16.77" duration="50.00" routeLength="527.80" waitingTime="0.00" waitingCount="0" stopTime="0.00" timeLoss="28.29" rerouteNo="1" devices="tripinfo_1222.0 routing_1222.0" vType="car0" speedFactor="1.13" vaporized="traci"/>
    <tripinfo id="1310.0" depart="113.00" departLane="95426996#0_0" departPos="5.10" departSpeed="0.00" departDelay="0.00" arrival="200.00" arrivalLane="679021691#1_0" arrivalPos="68.88" arrivalSpeed="13.66" duration="87.00" routeLength="677.90" waitingTime="0.00" waitingCount="0" stopTime="0.00" timeLoss="15.59" rerouteNo="1" devices="tripinfo_1310.0 routing_1310.0" vType="car0" speedFactor="1.00" vaporized="traci"/>
    <tripinfo id="1337.0" depart="153.00" departLane="95426996#0_0" departPos="5.10" departSpeed="0.00" departDelay="0.00" arrival="200.00" arrivalLane="19906586#2_0" arrivalPos="48.04" arrivalSpeed="12.32" duration="47.00" routeLength="405.45" waitingTime="0.00" waitingCount="0" stopTime="0.00" timeLoss="16.59" rerouteNo="1" devices="tripinfo_1337.0 routing_1337.0" vType="car0" speedFactor="1.09" vaporized="traci"/>
    <tripinfo id="1444.0" depart="145.00" departLane="220886686_0" departPos="5.10" departSpeed="0.00" departDelay="0.00" arrival="200.00" arrivalLane="84465442#1_0" arrivalPos="47.18" arrivalSpeed="8.03" duration="55.00" routeLength="407.11" waitingTime="0.00" waitingCount="0" stopTime="0.00" timeLoss="15.55" rerouteNo="1" devices="tripinfo_1444.0 routing_1444.0" vType="car0" speedFactor="0.97" vaporized="traci"/>
    <tripinfo id="1449.0" depart="130.00" departLane="220886686_1" departPos="5.10" departSpeed="0.00" departDelay="0.00" arrival="200.00" arrivalLane="51137634#1_0" arrivalPos="77.08" arrivalSpeed="13.00" duration="70.00" routeLength="391.65" waitingTime="17.00" waitingCount="1" stopTime="0.00" timeLoss="43.50" rerouteNo="1" devices="tripinfo_1449.0 routing_1449.0" vType="car0" speedFactor="0.94" vaporized="traci"/>
    <tripinfo id="1457.0" depart="132.00" departLane="220886686_0" departPos="5.10" departSpeed="0.00" departDelay="0.00" arrival="200.00" arrivalLane="50363135_0" arrivalPos="3.40" arrivalSpeed="9.27" duration="68.00" routeLength="458.24" waitingTime="3.00" waitingCount="1" stopTime="0.00" timeLoss="28.18" rerouteNo="1" devices="tripinfo_1457.0 routing_1457.0" vType="car0" speedFactor="1.12" vaporized="traci"/>
    <tripinfo id="149.0" depart="186.00" departLane="691053721-AddedOffRampEdge_2" departPos="5.10" departSpeed="0.00" departDelay="0.00" arrival="200.00" arrivalLane="691053721-AddedOffRampEdge_2" arrivalPos="59.42" arrivalSpeed="7.49" duration="14.00" routeLength="54.32" waitingTime="0.00" waitingCount="0" stopTime="0.00" timeLoss="10.54" rerouteNo="1" devices="tripinfo_149.0 routing_149.0" vType="car0" speedFactor="1.13" vaporized="traci"/>
    <tripinfo id="211.0" depart="113.00" departLane="114800016#1_0" departPos="5.10" departSpeed="0.00" departDelay="0.00" arrival="200.00" arrivalLane="46656516#0_0" arrivalPos="64.47" arrivalSpeed="10.08" duration="87.00" routeLength="633.23" waitingTime="22.00" waitingCount="1" stopTime="0.00" timeLoss="51.53" rerouteNo="1" devices="tripinfo_211.0 routing_211.0" vType="car0" speedFactor="0.94" vaporized="traci"/>
    <tripinfo id="2116.0" depart="166.00" departLane="923010606_0" departPos="3.77" departSpeed="0.00" departDelay="0.00" arrival="200.00" arrivalLane="151991095#2_0" arrivalPos="12.72" arrivalSpeed="8.27" duration="34.00" routeLength="221.48" waitingTime="0.00" waitingCount="0" stopTime="0.00" timeLoss="7.11" rerouteNo="1" devices="tripinfo_2116.0 routing_2116.0" vType="car0" speedFactor="1.03" vaporized="traci"/>