<?xml version="1.0" encoding="ISO-8859-1"?>
<modeling>
 <generator>
  <i name="program" type="string">vasp </i>
  <i name="version" type="string">6.4.1  </i>
  <i name="subversion" type="string">05Apr23 (build Oct 18 2023 12:23:55) complex                          parallel </i>
  <i name="platform" type="string">LinuxIFC </i>
  <i name="date" type="string">2023 11 21 </i>
  <i name="time" type="string">13:53:20 </i>
 </generator>
 <incar>
  <i type="string" name="SYSTEM">default</i>
  <i type="string" name="PREC">accurate</i>
  <i name="EDIFF">      0.00000001</i>
  <i type="logical" name="LREAL"> F  </i>
  <i type="int" name="ISMEAR">     0</i>
  <i name="SIGMA">      0.10000000</i>
  <i type="logical" name="LWAVE"> F  </i>
  <i type="logical" name="LCHARG"> F  </i>
  <i type="logical" name="LEPSILON"> T  </i>
 </incar>
 <primitive_cell>
  <structure name="primitive_cell" >
   <crystal>
    <varray name="basis" >
     <v>       0.00000000       2.84515074       2.84515074 </v>
     <v>       2.84515074       0.00000000       2.84515074 </v>
     <v>       2.84515074       2.84515074       0.00000000 </v>
    </varray>
    <i name="volume">     46.06232310 </i>
    <varray name="rec_basis" >
     <v>      -0.17573761       0.17573761       0.17573761 </v>
     <v>       0.17573761      -0.17573761       0.17573761 </v>
     <v>       0.17573761       0.17573761      -0.17573761 </v>
    </varray>
   </crystal>
   <varray name="positions" >
    <v>       0.00000000       0.00000000       0.00000000 </v>
    <v>       0.50000000       0.50000000       0.50000000 </v>
   </varray>
  </structure>
  <varray name="primitive_index" >
   <v type="int" >        1 </v>
   <v type="int" >        2 </v>
  </varray>
 </primitive_cell>
 <kpoints>
  <generation param="Gamma">
   <v type="int" name="divisions">       2        2        2 </v>
   <v name="usershift">      0.00000000       0.00000000       0.00000000 </v>
   <v name="genvec1">      0.50000000       0.00000000       0.00000000 </v>
   <v name="genvec2">      0.00000000       0.50000000       0.00000000 </v>
   <v name="genvec3">      0.00000000       0.00000000       0.50000000 </v>
   <v name="shift">      0.00000000       0.00000000       0.00000000 </v>
  </generation>
  <varray name="kpointlist" >
   <v>       0.00000000       0.00000000       0.00000000 </v>
   <v>       0.50000000       0.00000000       0.00000000 </v>
   <v>       0.50000000       0.50000000       0.00000000 </v>
  </varray>
  <varray name="weights" >
   <v>       0.12500000 </v>
   <v>       0.50000000 </v>
   <v>       0.37500000 </v>
  </varray>
 </kpoints>
 <parameters>
  <separator name="general" >
   <i type="string" name="SYSTEM">default</i>
   <i type="logical" name="LCOMPAT"> F  </i>
  </separator>
  <separator name="electronic" >
   <i type="string" name="PREC">accura</i>
   <i name="ENMAX">    262.47200000</i>
   <i name="ENAUG">    368.05600000</i>
   <i name="EDIFF">      0.00000001</i>
   <i type="int" name="IALGO">    38</i>
   <i type="int" name="IWAVPR">    10</i>
   <i type="int" name="NBANDS">    48</i>
   <i type="int" name="NBANDSLOW">    -1</i>
   <i type="int" name="NBANDSHIGH">    -1</i>
   <i name="NELECT">     14.00000000</i>
   <i type="int" name="TURBO">     0</i>
   <i type="int" name="IRESTART">     0</i>
   <i type="int" name="NREBOOT">     0</i>
   <i type="int" name="NMIN">     0</i>
   <i name="EREF">      0.00000000</i>
   <separator name="electronic smearing" >
    <i type="int" name="ISMEAR">     0</i>
    <i name="SIGMA">      0.10000000</i>
    <i name="KSPACING">      0.50000000</i>
    <i type="logical" name="KGAMMA"> T  </i>
    <i type="logical" name="KBLOWUP"> T  </i>
   </separator>
   <separator name="electronic projectors" >
    <i type="logical" name="LREAL"> F  </i>
    <v name="ROPT">      0.00000000      0.00000000</v>
    <i type="int" name="LMAXPAW">  -100</i>
    <i type="int" name="LMAXMIX">     2</i>
    <i type="logical" name="NLSPLINE"> F  </i>
   </separator>
   <separator name="electronic startup" >
    <i type="int" name="ISTART">     0</i>
    <i type="int" name="ICHARG">     2</i>
    <i type="int" name="INIWAV">     1</i>
   </separator>
   <separator name="electronic spin" >
    <i type="int" name="ISPIN">     1</i>
    <i type="logical" name="LNONCOLLINEAR"> F  </i>
    <v name="MAGMOM">      1.00000000      1.00000000</v>
    <i name="NUPDOWN">     -1.00000000</i>
    <i type="logical" name="LSORBIT"> F  </i>
    <v name="SAXIS">      0.00000000      0.00000000      1.00000000</v>
    <i type="logical" name="LSPIRAL"> F  </i>
    <v name="QSPIRAL">      0.00000000      0.00000000      0.00000000</v>
    <i type="logical" name="LZEROZ"> F  </i>
   </separator>
   <separator name="electronic exchange-correlation" >
    <i type="logical" name="LASPH"> F  </i>
    <i type="logical" name="LMETAGGA"> F  </i>
   </separator>
   <separator name="electronic convergence" >
    <i type="int" name="NELM">    60</i>
    <i type="int" name="NELMDL">    -5</i>
    <i type="int" name="NELMIN">     2</i>
    <i name="ENINI">    262.47200000</i>
    <separator name="electronic convergence detail" >
     <i type="logical" name="LDIAG"> T  </i>
     <i type="logical" name="LSUBROT"> F  </i>
     <i name="WEIMIN">      0.00000000</i>
     <i name="EBREAK">      0.00000000</i>
     <i name="DEPER">      0.30000000</i>
     <i type="int" name="NRMM">     4</i>
     <i name="TIME">      0.40000000</i>
    </separator>
   </separator>
   <separator name="electronic mixer" >
    <i name="AMIX">      0.40000000</i>
    <i name="BMIX">      1.00000000</i>
    <i name="AMIN">      0.10000000</i>
    <i name="AMIX_MAG">      1.60000000</i>
    <i name="BMIX_MAG">      1.00000000</i>
    <separator name="electronic mixer details" >
     <i type="int" name="IMIX">     4</i>
     <i type="logical" name="MIXFIRST"> F  </i>
     <i type="int" name="MAXMIX">   -45</i>
     <i name="WC">    100.00000000</i>
     <i type="int" name="INIMIX">     1</i>
     <i type="int" name="MIXPRE">     1</i>
     <i type="int" name="MREMOVE">     5</i>
    </separator>
   </separator>
   <separator name="electronic dipolcorrection" >
    <i type="logical" name="LDIPOL"> F  </i>
    <i type="logical" name="LMONO"> F  </i>
    <i type="int" name="IDIPOL">     0</i>
    <i name="EPSILON">      1.00000000</i>
    <v name="DIPOL">   -100.00000000   -100.00000000   -100.00000000</v>
    <i name="EFIELD">      0.00000000</i>
   </separator>
  </separator>
  <separator name="grids" >
   <i type="int" name="NGX">    24</i>
   <i type="int" name="NGY">    24</i>
   <i type="int" name="NGZ">    24</i>
   <i type="int" name="NGXF">    48</i>
   <i type="int" name="NGYF">    48</i>
   <i type="int" name="NGZF">    48</i>
   <i type="logical" name="ADDGRID"> F  </i>
  </separator>
  <separator name="ionic" >
   <i type="int" name="NSW">     0</i>
   <i type="int" name="IBRION">    -1</i>
   <i type="int" name="MDALGO">     0</i>
   <i type="int" name="ISIF">     2</i>
   <i name="PSTRESS">      0.00000000</i>
   <i name="EDIFFG">      0.00000010</i>
   <i type="int" name="NFREE">     0</i>
   <i name="POTIM">      0.50000000</i>
   <i name="SMASS">     -3.00000000</i>
   <i name="SCALEE">      1.00000000</i>
  </separator>
  <separator name="ionic md" >
   <i name="TEBEG">      0.00010000</i>
   <i name="TEEND">      0.00010000</i>
   <i type="int" name="NBLOCK">     1</i>
   <i type="int" name="KBLOCK">     1</i>
   <i type="int" name="NPACO">   256</i>
   <i name="APACO">     10.00000000</i>
  </separator>
  <separator name="symmetry" >
   <i type="int" name="ISYM">     2</i>
   <i name="SYMPREC">      0.00001000</i>
  </separator>
  <separator name="dos" >
   <i type="int" name="LORBIT">     0</i>
   <v name="RWIGS">     -1.00000000     -1.00000000</v>
   <i type="int" name="NEDOS">   301</i>
   <i name="EMIN">     10.00000000</i>
   <i name="EMAX">    -10.00000000</i>
   <i name="EFERMI">      0.00000000</i>
  </separator>
  <separator name="writing" >
   <i type="int" name="NWRITE">     2</i>
   <i type="logical" name="LWAVE"> F  </i>
   <i type="logical" name="LDOWNSAMPLE"> F  </i>
   <i type="logical" name="LCHARG"> F  </i>
   <i type="logical" name="LPARD"> F  </i>
   <i type="logical" name="LVTOT"> F  </i>
   <i type="logical" name="LVHAR"> F  </i>
   <i type="logical" name="LELF"> F  </i>
   <i type="logical" name="LOPTICS"> F  </i>
   <v name="STM">      0.00000000      0.00000000      0.00000000      0.00000000      0.00000000      0.00000000      0.00000000</v>
  </separator>
  <separator name="performance" >
   <i type="int" name="NPAR">    48</i>
   <i type="int" name="NSIM">     4</i>
   <i type="int" name="NBLK">    -1</i>
   <i type="logical" name="LPLANE"> T  </i>
   <i type="logical" name="LSCALAPACK"> T  </i>
   <i type="logical" name="LSCAAWARE"> T  </i>
   <i type="logical" name="LSCALU"> F  </i>
   <i type="logical" name="LASYNC"> F  </i>
   <i type="logical" name="LORBITALREAL"> F  </i>
  </separator>
  <separator name="miscellaneous" >
   <i type="int" name="IDIOT">     3</i>
   <i type="int" name="PHON_NSTRUCT">    -1</i>
   <i type="logical" name="LMUSIC"> F  </i>
   <v name="POMASS">     22.99000000     35.45300000</v>
   <v name="DARWINR">      0.00000000      0.00000000</v>
   <v name="DARWINV">      1.00000000      1.00000000</v>
   <i type="logical" name="LCORR"> T  </i>
  </separator>
  <i type="logical" name="GGA_COMPAT"> T  </i>
  <i type="logical" name="LBERRY"> F  </i>
  <i type="int" name="ICORELEVEL">     0</i>
  <i type="logical" name="LDAU"> F  </i>
  <i type="int" name="I_CONSTRAINED_M">     0</i>
  <separator name="electronic exchange-correlation" >
   <i type="string" name="GGA">--</i>
   <i type="int" name="VOSKOWN">     0</i>
   <i type="logical" name="LHFCALC"> F  </i>
   <i type="string" name="PRECFOCK"></i>
   <i type="logical" name="LSYMGRAD"> F  </i>
   <i type="logical" name="LHFONE"> F  </i>
   <i type="logical" name="LRHFCALC"> F  </i>
   <i type="logical" name="LTHOMAS"> F  </i>
   <i type="logical" name="LMODELHF"> F  </i>
   <i type="logical" name="LFOCKACE"> F  </i>
   <i name="ENCUT4O">     -1.00000000</i>
   <i type="int" name="EXXOEP">     0</i>
   <i type="int" name="FOURORBIT">     0</i>
   <i name="AEXX">      0.00000000</i>
   <i name="HFALPHA">      0.00000000</i>
   <i name="MCALPHA">      0.00000000</i>
   <i name="ALDAX">      1.00000000</i>
   <i name="AGGAX">      1.00000000</i>
   <i name="ALDAC">      1.00000000</i>
   <i name="AGGAC">      1.00000000</i>
   <i type="int" name="NKREDX">     1</i>
   <i type="int" name="NKREDY">     1</i>
   <i type="int" name="NKREDZ">     1</i>
   <i type="logical" name="SHIFTRED"> F  </i>
   <i type="logical" name="ODDONLY"> F  </i>
   <i type="logical" name="EVENONLY"> F  </i>
   <i type="int" name="LMAXFOCK">     0</i>
   <i type="int" name="NMAXFOCKAE">     0</i>
   <i type="logical" name="LFOCKAEDFT"> F  </i>
   <i name="HFSCREEN">      0.00000000</i>
   <i name="HFSCREENC">      0.00000000</i>
   <i type="int" name="NBANDSGWLOW">     0</i>
  </separator>
  <separator name="vdW DFT" >
   <i type="logical" name="LUSE_VDW"> F  </i>
   <i type="int" name="IVDW_NL">     1</i>
   <i type="logical" name="LSPIN_VDW"> F  </i>
   <i name="Zab_VDW">     -0.84910000</i>
   <i name="PARAM1">      0.12340000</i>
   <i name="PARAM2">      1.00000000</i>
   <i name="PARAM3">      0.00000000</i>
  </separator>
  <separator name="model GW" >
   <i type="int" name="MODEL_GW">     0</i>
   <i name="MODEL_EPS0">     13.81869693</i>
   <i name="MODEL_ALPHA">      1.00000000</i>
  </separator>
  <separator name="linear response parameters" >
   <i type="logical" name="LEPSILON"> T  </i>
   <i type="logical" name="LRPA"> F  </i>
   <i type="logical" name="LNABLA"> F  </i>
   <i type="logical" name="LVEL"> F  </i>
   <i type="int" name="KINTER">     0</i>
   <i name="CSHIFT">      0.10000000</i>
   <i name="OMEGAMAX">     -1.00000000</i>
   <i name="DEG_THRESHOLD">      0.00200000</i>
   <i name="RTIME">     -0.10000000</i>
   <i name="WPLASMAI">      0.00000000</i>
   <v name="DFIELD">      0.00000000      0.00000000      0.00000000</v>
   <v name="WPLASMA">      0.00000000      0.00000000      0.00000000      0.00000000      0.00000000      0.00000000      0.00000000      0.00000000      0.00000000</v>
  </separator>
  <separator name="orbital magnetization" >
   <i type="logical" name="NUCIND"> F  </i>
   <v name="MAGPOS">      0.00000000      0.00000000      0.00000000</v>
   <i type="logical" name="LNICSALL"> T  </i>
   <i type="logical" name="ORBITALMAG"> F  </i>
   <i type="logical" name="LMAGBLOCH"> F  </i>
   <i type="logical" name="LCHIMAG"> F  </i>
   <i type="logical" name="LGAUGE"> T  </i>
   <i type="int" name="MAGATOM">     0</i>
   <v name="MAGDIPOL">      0.00000000      0.00000000      0.00000000</v>
   <v name="AVECCONST">      0.00000000      0.00000000      0.00000000</v>
  </separator>
  <separator name="response functions" >
   <i type="logical" name="LALL_IN_ONE"> F  </i>
   <i type="int" name="IALL_IN_ONE">    -1</i>
   <i type="int" name="NBANDS_WAVE">    -1</i>
   <i type="logical" name="LFINITE_TEMPERATURE"> F  </i>
   <i type="logical" name="LADDER"> F  </i>
   <i type="logical" name="LRPAFORCE"> F  </i>
   <i type="logical" name="LFXC"> F  </i>
   <i type="logical" name="LHARTREE"> T  </i>
   <i type="int" name="IBSE">     0</i>
   <v type="int" name="KPOINT">    -1     0     0     0</v>
   <i type="logical" name="LTCTC"> F  </i>
   <i type="logical" name="LTCTE"> F  </i>
   <i type="logical" name="LTETE"> F  </i>
   <i type="logical" name="LTRIPLET"> F  </i>
   <i type="logical" name="LFXCEPS"> F  </i>
   <i type="logical" name="LFXHEG"> F  </i>
   <i type="int" name="NATURALO">     2</i>
   <i type="logical" name="LHOLEGF"> F  </i>
   <i type="logical" name="L2ORDER"> F  </i>
   <i type="logical" name="LDMP1"> F  </i>
   <i type="logical" name="LMP2LT"> F  </i>
   <i type="logical" name="LSMP2LT"> F  </i>
   <i type="logical" name="LGWLF"> F  </i>
   <i name="ENCUTGW">     -1.60000002</i>
   <i name="ENCUTGWSOFT">     -1.60000002</i>
   <i name="ENCUTLF">     -1.00000000</i>
   <i type="logical" name="LESF_SPLINES"> F  </i>
   <i type="int" name="LMAXMP2">    -1</i>
   <i name="SCISSOR">      0.00000000</i>
   <i type="int" name="NOMEGA">     0</i>
   <i type="int" name="NOMEGAR">     0</i>
   <i type="int" name="NBANDSGW">    -1</i>
   <i type="int" name="NBANDSO">    -1</i>
   <i type="int" name="NBANDSV">    -1</i>
   <i type="int" name="NELMGW">     1</i>
   <i type="int" name="NELMHF">     1</i>
   <i type="int" name="DIM">     3</i>
   <i type="int" name="IESPILON">     4</i>
   <i type="int" name="ANTIRES">     0</i>
   <i name="OMEGAMAX">    -30.00000000</i>
   <i name="OMEGAMIN">    -30.00000000</i>
   <i name="OMEGATL">   -200.00000000</i>
   <i type="int" name="OMEGAGRID">     0</i>
   <i name="CSHIFT">     -0.10000000</i>
   <i type="logical" name="LSELFENERGY"> F  </i>
   <i type="logical" name="LSPECTRAL"> F  </i>
   <i type="logical" name="LSPECTRALGW"> F  </i>
   <i type="logical" name="LSINGLES"> F  </i>
   <i type="logical" name="LFERMIGW"> F  </i>
   <i type="logical" name="ODDONLYGW"> F  </i>
   <i type="logical" name="EVENONLYGW"> F  </i>
   <i type="int" name="NKREDLFX">     1</i>
   <i type="int" name="NKREDLFY">     1</i>
   <i type="int" name="NKREDLFZ">     1</i>
   <i type="int" name="MAXMEM">  2800</i>
   <i type="int" name="TELESCOPE">     0</i>
   <i type="int" name="NTAUPAR">    -1</i>
   <i type="int" name="NOMEGAPAR">    -1</i>
   <i name="DAMP_NEWTON">      0.80000001</i>
   <i name="LAMBDA">      1.00000000</i>
  </separator>
  <separator name="External order field" >
   <i name="OFIELD_KAPPA">      0.00000000</i>
   <v name="OFIELD_K">      0.00000000      0.00000000      0.00000000</v>
   <i name="OFIELD_Q6_NEAR">      0.00000000</i>
   <i name="OFIELD_Q6_FAR">      0.00000000</i>
   <i name="OFIELD_A">      0.00000000</i>
  </separator>
  <separator name="optional k-points parameters" >
   <i type="int" name="KPOINTS_OPT_MODE">     1</i>
   <i type="logical" name="LKPOINTS_OPT"> F  </i>
  </separator>
 </parameters>
 <atominfo>
  <atoms>       2 </atoms>
  <types>       2 </types>
  <array name="atoms" >
   <dimension dim="1">ion</dimension>
   <field type="string">element</field>
   <field type="int">atomtype</field>
   <set>
    <rc><c>Na</c><c>   1</c></rc>
    <rc><c>Cl</c><c>   2</c></rc>
   </set>
  </array>
  <array name="atomtypes" >
   <dimension dim="1">type</dimension>
   <field type="int">atomspertype</field>
   <field type="string">element</field>
   <field>mass</field>
   <field>valence</field>
   <field type="string">pseudopotential</field>
   <set>
    <rc><c>   1</c><c>Na</c><c>     22.99000000</c><c>      7.00000000</c><c>  PAW_PBE Na_pv 19Sep2006               </c></rc>
    <rc><c>   1</c><c>Cl</c><c>     35.45300000</c><c>      7.00000000</c><c>  PAW_PBE Cl 06Sep2000                  </c></rc>
   </set>
  </array>
 </atominfo>
 <structure name="initialpos" >
  <crystal>
   <varray name="basis" >
    <v>       0.00000000       2.84515074       2.84515074 </v>
    <v>       2.84515074       0.00000000       2.84515074 </v>
    <v>       2.84515074       2.84515074       0.00000000 </v>
   </varray>
   <i name="volume">     46.06232310 </i>
   <varray name="rec_basis" >
    <v>      -0.17573761       0.17573761       0.17573761 </v>
    <v>       0.17573761      -0.17573761       0.17573761 </v>
    <v>       0.17573761       0.17573761      -0.17573761 </v>
   </varray>
  </crystal>
  <varray name="positions" >
   <v>       0.00000000       0.00000000       0.00000000 </v>
   <v>       0.50000000       0.50000000       0.50000000 </v>
  </varray>
 </structure>
 <calculation>
  <scstep>
   <time name="dav">    0.08    0.10</time>
   <time name="total">    0.09    0.11</time>
   <energy>
    <i name="alphaZ">     22.40877981 </i>
    <i name="ewald">   -703.64199046 </i>
    <i name="hartreedc">   -287.05104262 </i>
    <i name="XCdc">     44.74730697 </i>
    <i name="pawpsdc">    827.62341595 </i>
    <i name="pawaedc">   -916.31000354 </i>
    <i name="eentropy">     -0.00000000 </i>
    <i name="bandstr">   -164.95508088 </i>
    <i name="atom">   1175.68348659 </i>
    <i name="e_fr_energy">     -1.49512817 </i>
    <i name="e_wo_entrp">     -1.49512817 </i>
    <i name="e_0_energy">     -1.49512817 </i>
   </energy>
  </scstep>
  <scstep>
   <time name="dav">    0.09    0.09</time>
   <time name="total">    0.09    0.09</time>
   <energy>
    <i name="e_fr_energy">     -6.77786851 </i>
    <i name="e_wo_entrp">     -6.77786851 </i>
    <i name="e_0_energy">     -6.77786851 </i>
   </energy>
  </scstep>
  <scstep>
   <time name="dav">    0.08    0.08</time>
   <time name="total">    0.08    0.08</time>
   <energy>
    <i name="e_fr_energy">     -6.78242975 </i>
    <i name="e_wo_entrp">     -6.78242975 </i>
    <i name="e_0_energy">     -6.78242975 </i>
   </energy>
  </scstep>
  <scstep>
   <time name="dav">    0.11    0.11</time>
   <time name="total">    0.11    0.11</time>
   <energy>
    <i name="e_fr_energy">     -6.78243054 </i>
    <i name="e_wo_entrp">     -6.78243054 </i>
    <i name="e_0_energy">     -6.78243054 </i>
   </energy>
  </scstep>
  <scstep>
   <time name="dav">    0.08    0.08</time>
   <time name="total">    0.09    0.09</time>
   <energy>
    <i name="e_fr_energy">     -6.78243054 </i>
    <i name="e_wo_entrp">     -6.78243054 </i>
    <i name="e_0_energy">     -6.78243054 </i>
   </energy>
  </scstep>
  <scstep>
   <time name="dav">    0.04    0.04</time>
   <time name="total">    0.06    0.06</time>
   <energy>
    <i name="e_fr_energy">     -6.53374643 </i>
    <i name="e_wo_entrp">     -6.53374643 </i>
    <i name="e_0_energy">     -6.53374643 </i>
   </energy>
  </scstep>
  <scstep>
   <time name="dav">    0.07    0.07</time>
   <time name="total">    0.08    0.08</time>
   <energy>
    <i name="e_fr_energy">     -6.51502848 </i>
    <i name="e_wo_entrp">     -6.51502848 </i>
    <i name="e_0_energy">     -6.51502848 </i>
   </energy>
  </scstep>
  <scstep>
   <time name="dav">    0.09    0.09</time>
   <time name="total">    0.10    0.10</time>
   <energy>
    <i name="e_fr_energy">     -6.52283088 </i>
    <i name="e_wo_entrp">     -6.52283088 </i>
    <i name="e_0_energy">     -6.52283088 </i>
   </energy>
  </scstep>
  <scstep>
   <time name="dav">    0.10    0.10</time>
   <time name="total">    0.12    0.12</time>
   <energy>
    <i name="e_fr_energy">     -6.52314636 </i>
    <i name="e_wo_entrp">     -6.52314636 </i>
    <i name="e_0_energy">     -6.52314636 </i>
   </energy>
  </scstep>
  <scstep>
   <time name="dav">    0.09    0.09</time>
   <time name="total">    0.10    0.10</time>
   <energy>
    <i name="e_fr_energy">     -6.52343292 </i>
    <i name="e_wo_entrp">     -6.52343292 </i>
    <i name="e_0_energy">     -6.52343292 </i>
   </energy>
  </scstep>
  <scstep>
   <time name="dav">    0.11    0.11</time>
   <time name="total">    0.13    0.13</time>
   <energy>
    <i name="e_fr_energy">     -6.52343358 </i>
    <i name="e_wo_entrp">     -6.52343358 </i>
    <i name="e_0_energy">     -6.52343358 </i>
   </energy>
  </scstep>
  <scstep>
   <time name="dav">    0.09    0.09</time>
   <time name="total">    0.10    0.10</time>
   <energy>
    <i name="e_fr_energy">     -6.52343376 </i>
    <i name="e_wo_entrp">     -6.52343376 </i>
    <i name="e_0_energy">     -6.52343376 </i>
   </energy>
  </scstep>
  <scstep>
   <time name="dav">    0.08    0.08</time>
   <time name="total">    0.09    0.09</time>
   <energy>
    <i name="alphaZ">     22.40877981 </i>
    <i name="ewald">   -703.64199046 </i>
    <i name="hartreedc">   -291.79565300 </i>
    <i name="XCdc">     45.52316306 </i>
    <i name="pawpsdc">    995.84427408 </i>
    <i name="pawaedc">  -1084.63525283 </i>
    <i name="eentropy">     -0.00000000 </i>
    <i name="bandstr">   -165.91024101 </i>
    <i name="atom">   1175.68348659 </i>
    <i name="e_fr_energy">     -6.52343376 </i>
    <i name="e_wo_entrp">     -6.52343376 </i>
    <i name="e_0_energy">     -6.52343376 </i>
   </energy>
  </scstep>
  <structure>
   <crystal>
    <varray name="basis" >
     <v>       0.00000000       2.84515074       2.84515074 </v>
     <v>       2.84515074       0.00000000       2.84515074 </v>
     <v>       2.84515074       2.84515074       0.00000000 </v>
    </varray>
    <i name="volume">     46.06232310 </i>
    <varray name="rec_basis" >
     <v>      -0.17573761       0.17573761       0.17573761 </v>
     <v>       0.17573761      -0.17573761       0.17573761 </v>
     <v>       0.17573761       0.17573761      -0.17573761 </v>
    </varray>
   </crystal>
   <varray name="positions" >
    <v>       0.00000000       0.00000000       0.00000000 </v>
    <v>       0.50000000       0.50000000       0.50000000 </v>
   </varray>
  </structure>
  <varray name="forces" >
   <v>       0.00000000       0.00000000      -0.00000000 </v>
   <v>       0.00000000      -0.00000000       0.00000000 </v>
  </varray>
  <varray name="stress" >
   <v>      -4.07827651      -0.00000000       0.00000000 </v>
   <v>      -0.00000000      -4.07827651      -0.00000000 </v>
   <v>       0.00000000      -0.00000000      -4.07827651 </v>
  </varray>
  <energy>
   <i name="e_fr_energy">     -6.52343376 </i>
   <i name="e_wo_entrp">     -6.52343376 </i>
   <i name="e_0_energy">     -6.52343376 </i>
  </energy>
  <scstep>
   <time name="total">    0.01    0.01</time>
   <energy>
    <i name="e_fr_energy">    -46.85981191 </i>
    <i name="e_wo_entrp">    -46.85981191 </i>
    <i name="e_0_energy">    -46.85981191 </i>
   </energy>
  </scstep>
  <scstep>
   <time name="total">    0.01    0.01</time>
   <energy>
    <i name="e_fr_energy">    -47.73934950 </i>
    <i name="e_wo_entrp">    -47.73934950 </i>
    <i name="e_0_energy">    -47.73934950 </i>
   </energy>
  </scstep>
  <scstep>
   <time name="total">    0.01    0.01</time>
   <energy>
    <i name="e_fr_energy">    -47.77495820 </i>
    <i name="e_wo_entrp">    -47.77495820 </i>
    <i name="e_0_energy">    -47.77495820 </i>
   </energy>
  </scstep>
  <scstep>
   <time name="total">    0.01    0.01</time>
   <energy>
    <i name="e_fr_energy">    -47.77514756 </i>
    <i name="e_wo_entrp">    -47.77514756 </i>
    <i name="e_0_energy">    -47.77514756 </i>
   </energy>
  </scstep>
  <scstep>
   <time name="total">    0.01    0.01</time>
   <energy>
    <i name="e_fr_energy">    -47.77517140 </i>
    <i name="e_wo_entrp">    -47.77517140 </i>
    <i name="e_0_energy">    -47.77517140 </i>
   </energy>
  </scstep>
  <scstep>
   <time name="total">    0.01    0.01</time>
   <energy>
    <i name="e_fr_energy">    -47.77517171 </i>
    <i name="e_wo_entrp">    -47.77517171 </i>
    <i name="e_0_energy">    -47.77517171 </i>
   </energy>
  </scstep>
  <scstep>
   <time name="total">    0.01    0.01</time>
   <energy>
    <i name="e_fr_energy">    -47.77517176 </i>
    <i name="e_wo_entrp">    -47.77517176 </i>
    <i name="e_0_energy">    -47.77517176 </i>
   </energy>
  </scstep>
  <scstep>
   <time name="total">    0.01    0.01</time>
   <energy>
    <i name="e_fr_energy">    -47.77517176 </i>
    <i name="e_wo_entrp">    -47.77517176 </i>
    <i name="e_0_energy">    -47.77517176 </i>
   </energy>
  </scstep>
  <scstep>
   <time name="total">    0.01    0.01</time>
   <energy>
    <i name="e_fr_energy">    -46.87017642 </i>
    <i name="e_wo_entrp">    -46.87017642 </i>
    <i name="e_0_energy">    -46.87017642 </i>
   </energy>
  </scstep>
  <scstep>
   <time name="total">    0.01    0.01</time>
   <energy>
    <i name="e_fr_energy">    -47.73935334 </i>
    <i name="e_wo_entrp">    -47.73935334 </i>
    <i name="e_0_energy">    -47.73935334 </i>
   </energy>
  </scstep>
  <scstep>
   <time name="total">    0.01    0.01</time>
   <energy>
    <i name="e_fr_energy">    -47.77490023 </i>
    <i name="e_wo_entrp">    -47.77490023 </i>
    <i name="e_0_energy">    -47.77490023 </i>
   </energy>
  </scstep>
  <scstep>
   <time name="total">    0.01    0.01</time>
   <energy>
    <i name="e_fr_energy">    -47.77512026 </i>
    <i name="e_wo_entrp">    -47.77512026 </i>
    <i name="e_0_energy">    -47.77512026 </i>
   </energy>
  </scstep>
  <scstep>
   <time name="total">    0.01    0.01</time>
   <energy>
    <i name="e_fr_energy">    -47.77515630 </i>
    <i name="e_wo_entrp">    -47.77515630 </i>
    <i name="e_0_energy">    -47.77515630 </i>
   </energy>
  </scstep>
  <scstep>
   <time name="total">    0.01    0.01</time>
   <energy>
    <i name="e_fr_energy">    -47.77515681 </i>
    <i name="e_wo_entrp">    -47.77515681 </i>
    <i name="e_0_energy">    -47.77515681 </i>
   </energy>
  </scstep>
  <scstep>
   <time name="total">    0.01    0.01</time>
   <energy>
    <i name="e_fr_energy">    -47.77515689 </i>
    <i name="e_wo_entrp">    -47.77515689 </i>
    <i name="e_0_energy">    -47.77515689 </i>
   </energy>
  </scstep>
  <scstep>
   <time name="total">    0.01    0.01</time>
   <energy>
    <i name="e_fr_energy">    -47.77515689 </i>
    <i name="e_wo_entrp">    -47.77515689 </i>
    <i name="e_0_energy">    -47.77515689 </i>
   </energy>
  </scstep>
  <scstep>
   <time name="total">    0.01    0.01</time>
   <energy>
    <i name="e_fr_energy">    -43.11392822 </i>
    <i name="e_wo_entrp">    -43.11392822 </i>
    <i name="e_0_energy">    -43.11392822 </i>
   </energy>
  </scstep>
  <scstep>
   <time name="total">    0.01    0.01</time>
   <energy>
    <i name="e_fr_energy">    -43.65132404 </i>
    <i name="e_wo_entrp">    -43.65132404 </i>
    <i name="e_0_energy">    -43.65132404 </i>
   </energy>
  </scstep>
  <scstep>
   <time name="total">    0.01    0.01</time>
   <energy>
    <i name="e_fr_energy">    -43.65749821 </i>
    <i name="e_wo_entrp">    -43.65749821 </i>
    <i name="e_0_energy">    -43.65749821 </i>
   </energy>
  </scstep>
  <scstep>
   <time name="total">    0.01    0.01</time>
   <energy>
    <i name="e_fr_energy">    -43.65746878 </i>
    <i name="e_wo_entrp">    -43.65746878 </i>
    <i name="e_0_energy">    -43.65746878 </i>
   </energy>
  </scstep>
  <scstep>
   <time name="total">    0.01    0.01</time>
   <energy>
    <i name="e_fr_energy">    -43.65746647 </i>
    <i name="e_wo_entrp">    -43.65746647 </i>
    <i name="e_0_energy">    -43.65746647 </i>
   </energy>
  </scstep>
  <scstep>
   <time name="total">    0.01    0.01</time>
   <energy>
    <i name="e_fr_energy">    -43.65746657 </i>
    <i name="e_wo_entrp">    -43.65746657 </i>
    <i name="e_0_energy">    -43.65746657 </i>
   </energy>
  </scstep>
  <scstep>
   <time name="total">    0.01    0.01</time>
   <energy>
    <i name="e_fr_energy">    -43.65746657 </i>
    <i name="e_wo_entrp">    -43.65746657 </i>
    <i name="e_0_energy">    -43.65746657 </i>
   </energy>
  </scstep>
  <scstep>
   <time name="total">    0.03    0.03</time>
   <energy>
    <i name="e_fr_energy">     -0.30139850 </i>
    <i name="e_wo_entrp">     -0.30139850 </i>
    <i name="e_0_energy">     -0.30139850 </i>
   </energy>
  </scstep>
  <scstep>
   <time name="total">    0.03    0.03</time>
   <energy>
    <i name="e_fr_energy">     -0.33951229 </i>
    <i name="e_wo_entrp">     -0.33951229 </i>
    <i name="e_0_energy">     -0.33951229 </i>
   </energy>
  </scstep>
  <scstep>
   <time name="total">    0.03    0.03</time>
   <energy>
    <i name="e_fr_energy">     -0.33952724 </i>
    <i name="e_wo_entrp">     -0.33952724 </i>
    <i name="e_0_energy">     -0.33952724 </i>
   </energy>
  </scstep>
  <scstep>
   <time name="total">    0.03    0.03</time>
   <energy>
    <i name="e_fr_energy">     -0.33952723 </i>
    <i name="e_wo_entrp">     -0.33952723 </i>
    <i name="e_0_energy">     -0.33952723 </i>
   </energy>
  </scstep>
  <scstep>
   <time name="total">    0.03    0.03</time>
   <energy>
    <i name="e_fr_energy">     -0.33952723 </i>
    <i name="e_wo_entrp">     -0.33952723 </i>
    <i name="e_0_energy">     -0.33952723 </i>
   </energy>
  </scstep>
  <scstep>
   <time name="total">    0.03    0.03</time>
   <energy>
    <i name="e_fr_energy">     -0.29811085 </i>
    <i name="e_wo_entrp">     -0.29811085 </i>
    <i name="e_0_energy">     -0.29811085 </i>
   </energy>
  </scstep>
  <scstep>
   <time name="total">    0.03    0.03</time>
   <energy>
    <i name="e_fr_energy">     -0.33950290 </i>
    <i name="e_wo_entrp">     -0.33950290 </i>
    <i name="e_0_energy">     -0.33950290 </i>
   </energy>
  </scstep>
  <scstep>
   <time name="total">    0.03    0.03</time>
   <energy>
    <i name="e_fr_energy">     -0.33952669 </i>
    <i name="e_wo_entrp">     -0.33952669 </i>
    <i name="e_0_energy">     -0.33952669 </i>
   </energy>
  </scstep>
  <scstep>
   <time name="total">    0.08    0.08</time>
   <energy>
    <i name="e_fr_energy">     -0.33952669 </i>
    <i name="e_wo_entrp">     -0.33952669 </i>
    <i name="e_0_energy">     -0.33952669 </i>
   </energy>
  </scstep>
  <scstep>
   <time name="total">    0.03    0.03</time>
   <energy>
    <i name="e_fr_energy">     -0.33952669 </i>
    <i name="e_wo_entrp">     -0.33952669 </i>
    <i name="e_0_energy">     -0.33952669 </i>
   </energy>
  </scstep>
  <scstep>
   <time name="total">    0.03    0.03</time>
   <energy>
    <i name="e_fr_energy">     -0.22583705 </i>
    <i name="e_wo_entrp">     -0.22583705 </i>
    <i name="e_0_energy">     -0.22583705 </i>
   </energy>
  </scstep>
  <scstep>
   <time name="total">    0.03    0.03</time>
   <energy>
    <i name="e_fr_energy">     -0.26581781 </i>
    <i name="e_wo_entrp">     -0.26581781 </i>
    <i name="e_0_energy">     -0.26581781 </i>
   </energy>
  </scstep>
  <scstep>
   <time name="total">    0.03    0.03</time>
   <energy>
    <i name="e_fr_energy">     -0.26584000 </i>
    <i name="e_wo_entrp">     -0.26584000 </i>
    <i name="e_0_energy">     -0.26584000 </i>
   </energy>
  </scstep>
  <scstep>
   <time name="total">    0.03    0.03</time>
   <energy>
    <i name="e_fr_energy">     -0.26584000 </i>
    <i name="e_wo_entrp">     -0.26584000 </i>
    <i name="e_0_energy">     -0.26584000 </i>
   </energy>
  </scstep>
  <scstep>
   <time name="total">    0.03    0.03</time>
   <energy>
    <i name="e_fr_energy">     -0.26584000 </i>
    <i name="e_wo_entrp">     -0.26584000 </i>
    <i name="e_0_energy">     -0.26584000 </i>
   </energy>
  </scstep>
  <varray name="dielectric_ipa" >
   <v>       3.47463924       0.00000000      -0.00000000 </v>
   <v>       0.00000000       3.47463924       0.00000000 </v>
   <v>       0.00000000       0.00000000       3.47463924 </v>
  </varray>
  <kpoints>
   <generation param="Gamma">
    <v type="int" name="divisions">       2        2        2 </v>
    <v name="usershift">      0.00000000       0.00000000       0.00000000 </v>
    <v name="genvec1">      0.50000000       0.00000000       0.00000000 </v>
    <v name="genvec2">      0.00000000       0.50000000       0.00000000 </v>
    <v name="genvec3">      0.00000000       0.00000000       0.50000000 </v>
    <v name="shift">      0.00000000       0.00000000       0.00000000 </v>
   </generation>
   <varray name="kpointlist" >
    <v>       0.00000000       0.00000000       0.00000000 </v>
    <v>       0.50000000       0.00000000       0.00000000 </v>
    <v>       0.50000000       0.50000000       0.00000000 </v>
    <v>       0.00000000       0.50000000       0.50000000 </v>
   </varray>
   <varray name="weights" >
    <v>       0.12500000 </v>
    <v>       0.50000000 </v>
    <v>       0.25000000 </v>
    <v>       0.12500000 </v>
   </varray>
  </kpoints>
  <scstep>
   <time name="total">    0.03    0.04</time>
   <energy>
    <i name="e_fr_energy">     -0.27721663 </i>
    <i name="e_wo_entrp">     -0.27721663 </i>
    <i name="e_0_energy">     -0.27721663 </i>
   </energy>
  </scstep>
  <scstep>
   <time name="total">    0.04    0.04</time>
   <energy>
    <i name="e_fr_energy">     -0.31495063 </i>
    <i name="e_wo_entrp">     -0.31495063 </i>
    <i name="e_0_energy">     -0.31495063 </i>
   </energy>
  </scstep>
  <scstep>
   <time name="total">    0.04    0.04</time>
   <energy>
    <i name="e_fr_energy">     -0.29304358 </i>
    <i name="e_wo_entrp">     -0.29304358 </i>
    <i name="e_0_energy">     -0.29304358 </i>
   </energy>
  </scstep>
  <scstep>
   <time name="total">    0.04    0.04</time>
   <energy>
    <i name="e_fr_energy">     -0.30633869 </i>
    <i name="e_wo_entrp">     -0.30633869 </i>
    <i name="e_0_energy">     -0.30633869 </i>
   </energy>
  </scstep>
  <scstep>
   <time name="total">    0.04    0.04</time>
   <energy>
    <i name="e_fr_energy">     -0.32041452 </i>
    <i name="e_wo_entrp">     -0.32041452 </i>
    <i name="e_0_energy">     -0.32041452 </i>
   </energy>
  </scstep>
  <scstep>
   <time name="total">    0.04    0.04</time>
   <energy>
    <i name="e_fr_energy">     -0.32298193 </i>
    <i name="e_wo_entrp">     -0.32298193 </i>
    <i name="e_0_energy">     -0.32298193 </i>
   </energy>
  </scstep>
  <scstep>
   <time name="total">    0.04    0.04</time>
   <energy>
    <i name="e_fr_energy">     -0.32350700 </i>
    <i name="e_wo_entrp">     -0.32350700 </i>
    <i name="e_0_energy">     -0.32350700 </i>
   </energy>
  </scstep>
  <scstep>
   <time name="total">    0.04    0.04</time>
   <energy>
    <i name="e_fr_energy">     -0.32354130 </i>
    <i name="e_wo_entrp">     -0.32354130 </i>
    <i name="e_0_energy">     -0.32354130 </i>
   </energy>
  </scstep>
  <scstep>
   <time name="total">    0.04    0.04</time>
   <energy>
    <i name="e_fr_energy">     -0.32354423 </i>
    <i name="e_wo_entrp">     -0.32354423 </i>
    <i name="e_0_energy">     -0.32354423 </i>
   </energy>
  </scstep>
  <scstep>
   <time name="total">    0.04    0.04</time>
   <energy>
    <i name="e_fr_energy">     -0.32354309 </i>
    <i name="e_wo_entrp">     -0.32354309 </i>
    <i name="e_0_energy">     -0.32354309 </i>
   </energy>
  </scstep>
  <scstep>
   <time name="total">    0.04    0.04</time>
   <energy>
    <i name="e_fr_energy">     -0.32354324 </i>
    <i name="e_wo_entrp">     -0.32354324 </i>
    <i name="e_0_energy">     -0.32354324 </i>
   </energy>
  </scstep>
  <kpoints>
   <generation param="Gamma">
    <v type="int" name="divisions">       2        2        2 </v>
    <v name="usershift">      0.00000000       0.00000000       0.00000000 </v>
    <v name="genvec1">      0.50000000       0.00000000       0.00000000 </v>
    <v name="genvec2">      0.00000000       0.50000000       0.00000000 </v>
    <v name="genvec3">      0.00000000       0.00000000       0.50000000 </v>
    <v name="shift">      0.00000000       0.00000000       0.00000000 </v>
   </generation>
   <varray name="kpointlist" >
    <v>       0.00000000       0.00000000       0.00000000 </v>
    <v>       0.50000000       0.00000000       0.00000000 </v>
    <v>       0.50000000       0.50000000       0.00000000 </v>
    <v>       0.50000000       0.00000000       0.50000000 </v>
   </varray>
   <varray name="weights" >
    <v>       0.12500000 </v>
    <v>       0.50000000 </v>
    <v>       0.25000000 </v>
    <v>       0.12500000 </v>
   </varray>
  </kpoints>
  <scstep>
   <time name="total">    0.03    0.03</time>
   <energy>
    <i name="e_fr_energy">     -0.27392898 </i>
    <i name="e_wo_entrp">     -0.27392898 </i>
    <i name="e_0_energy">     -0.27392898 </i>
   </energy>
  </scstep>
  <scstep>
   <time name="total">    0.04    0.04</time>
   <energy>
    <i name="e_fr_energy">     -0.31494124 </i>
    <i name="e_wo_entrp">     -0.31494124 </i>
    <i name="e_0_energy">     -0.31494124 </i>
   </energy>
  </scstep>
  <scstep>
   <time name="total">    0.04    0.04</time>
   <energy>
    <i name="e_fr_energy">     -0.29304989 </i>
    <i name="e_wo_entrp">     -0.29304989 </i>
    <i name="e_0_energy">     -0.29304989 </i>
   </energy>
  </scstep>
  <scstep>
   <time name="total">    0.04    0.04</time>
   <energy>
    <i name="e_fr_energy">     -0.30634431 </i>
    <i name="e_wo_entrp">     -0.30634431 </i>
    <i name="e_0_energy">     -0.30634431 </i>
   </energy>
  </scstep>
  <scstep>
   <time name="total">    0.04    0.04</time>
   <energy>
    <i name="e_fr_energy">     -0.32042441 </i>
    <i name="e_wo_entrp">     -0.32042441 </i>
    <i name="e_0_energy">     -0.32042441 </i>
   </energy>
  </scstep>
  <scstep>
   <time name="total">    0.04    0.04</time>
   <energy>
    <i name="e_fr_energy">     -0.32297427 </i>
    <i name="e_wo_entrp">     -0.32297427 </i>
    <i name="e_0_energy">     -0.32297427 </i>
   </energy>
  </scstep>
  <scstep>
   <time name="total">    0.04    0.04</time>
   <energy>
    <i name="e_fr_energy">     -0.32350727 </i>
    <i name="e_wo_entrp">     -0.32350727 </i>
    <i name="e_0_energy">     -0.32350727 </i>
   </energy>
  </scstep>
  <scstep>
   <time name="total">    0.04    0.04</time>
   <energy>
    <i name="e_fr_energy">     -0.32354150 </i>
    <i name="e_wo_entrp">     -0.32354150 </i>
    <i name="e_0_energy">     -0.32354150 </i>
   </energy>
  </scstep>
  <scstep>
   <time name="total">    0.04    0.04</time>
   <energy>
    <i name="e_fr_energy">     -0.32354445 </i>
    <i name="e_wo_entrp">     -0.32354445 </i>
    <i name="e_0_energy">     -0.32354445 </i>
   </energy>
  </scstep>
  <scstep>
   <time name="total">    0.04    0.04</time>
   <energy>
    <i name="e_fr_energy">     -0.32354331 </i>
    <i name="e_wo_entrp">     -0.32354331 </i>
    <i name="e_0_energy">     -0.32354331 </i>
   </energy>
  </scstep>
  <scstep>
   <time name="total">    0.04    0.04</time>
   <energy>
    <i name="e_fr_energy">     -0.32354347 </i>
    <i name="e_wo_entrp">     -0.32354347 </i>
    <i name="e_0_energy">     -0.32354347 </i>
   </energy>
  </scstep>
  <kpoints>
   <generation param="Gamma">
    <v type="int" name="divisions">       2        2        2 </v>
    <v name="usershift">      0.00000000       0.00000000       0.00000000 </v>
    <v name="genvec1">      0.50000000       0.00000000       0.00000000 </v>
    <v name="genvec2">      0.00000000       0.50000000       0.00000000 </v>
    <v name="genvec3">      0.00000000       0.00000000       0.50000000 </v>
    <v name="shift">      0.00000000       0.00000000       0.00000000 </v>
   </generation>
   <varray name="kpointlist" >
    <v>       0.00000000       0.00000000       0.00000000 </v>
    <v>       0.50000000       0.00000000       0.00000000 </v>
    <v>       0.50000000       0.50000000       0.00000000 </v>
    <v>       0.00000000       0.50000000       0.50000000 </v>
   </varray>
   <varray name="weights" >
    <v>       0.12500000 </v>
    <v>       0.50000000 </v>
    <v>       0.12500000 </v>
    <v>       0.25000000 </v>
   </varray>
  </kpoints>
  <scstep>
   <time name="total">    0.03    0.03</time>
   <energy>
    <i name="e_fr_energy">     -0.27420079 </i>
    <i name="e_wo_entrp">     -0.27420079 </i>
    <i name="e_0_energy">     -0.27420079 </i>
   </energy>
  </scstep>
  <scstep>
   <time name="total">    0.04    0.04</time>
   <energy>
    <i name="e_fr_energy">     -0.31494111 </i>
    <i name="e_wo_entrp">     -0.31494111 </i>
    <i name="e_0_energy">     -0.31494111 </i>
   </energy>
  </scstep>
  <scstep>
   <time name="total">    0.04    0.04</time>
   <energy>
    <i name="e_fr_energy">     -0.29304988 </i>
    <i name="e_wo_entrp">     -0.29304988 </i>
    <i name="e_0_energy">     -0.29304988 </i>
   </energy>
  </scstep>
  <scstep>
   <time name="total">    0.04    0.04</time>
   <energy>
    <i name="e_fr_energy">     -0.30634440 </i>
    <i name="e_wo_entrp">     -0.30634440 </i>
    <i name="e_0_energy">     -0.30634440 </i>
   </energy>
  </scstep>
  <scstep>
   <time name="total">    0.04    0.04</time>
   <energy>
    <i name="e_fr_energy">     -0.32042071 </i>
    <i name="e_wo_entrp">     -0.32042071 </i>
    <i name="e_0_energy">     -0.32042071 </i>
   </energy>
  </scstep>
  <scstep>
   <time name="total">    0.04    0.04</time>
   <energy>
    <i name="e_fr_energy">     -0.32297599 </i>
    <i name="e_wo_entrp">     -0.32297599 </i>
    <i name="e_0_energy">     -0.32297599 </i>
   </energy>
  </scstep>
  <scstep>
   <time name="total">    0.04    0.04</time>
   <energy>
    <i name="e_fr_energy">     -0.32350707 </i>
    <i name="e_wo_entrp">     -0.32350707 </i>
    <i name="e_0_energy">     -0.32350707 </i>
   </energy>
  </scstep>
  <scstep>
   <time name="total">    0.04    0.04</time>
   <energy>
    <i name="e_fr_energy">     -0.32354150 </i>
    <i name="e_wo_entrp">     -0.32354150 </i>
    <i name="e_0_energy">     -0.32354150 </i>
   </energy>
  </scstep>
  <scstep>
   <time name="total">    0.04    0.04</time>
   <energy>
    <i name="e_fr_energy">     -0.32354444 </i>
    <i name="e_wo_entrp">     -0.32354444 </i>
    <i name="e_0_energy">     -0.32354444 </i>
   </energy>
  </scstep>
  <scstep>
   <time name="total">    0.04    0.04</time>
   <energy>
    <i name="e_fr_energy">     -0.32354330 </i>
    <i name="e_wo_entrp">     -0.32354330 </i>
    <i name="e_0_energy">     -0.32354330 </i>
   </energy>
  </scstep>
  <scstep>
   <time name="total">    0.04    0.04</time>
   <energy>
    <i name="e_fr_energy">     -0.32354346 </i>
    <i name="e_wo_entrp">     -0.32354346 </i>
    <i name="e_0_energy">     -0.32354346 </i>
   </energy>
  </scstep>
  <kpoints>
   <generation param="Gamma">
    <v type="int" name="divisions">       2        2        2 </v>
    <v name="usershift">      0.00000000       0.00000000       0.00000000 </v>
    <v name="genvec1">      0.50000000       0.00000000       0.00000000 </v>
    <v name="genvec2">      0.00000000       0.50000000       0.00000000 </v>
    <v name="genvec3">      0.00000000       0.00000000       0.50000000 </v>
    <v name="shift">      0.00000000       0.00000000       0.00000000 </v>
   </generation>
   <varray name="kpointlist" >
    <v>       0.00000000       0.00000000       0.00000000 </v>
    <v>       0.50000000       0.00000000       0.00000000 </v>
    <v>       0.50000000       0.50000000       0.00000000 </v>
   </varray>
   <varray name="weights" >
    <v>       0.12500000 </v>
    <v>       0.50000000 </v>
    <v>       0.37500000 </v>
   </varray>
  </kpoints>
  <varray name="dielectric_dft" >
   <v>       3.24483954       0.00000000       0.00000000 </v>
   <v>       0.00000000       3.24483954       0.00000000 </v>
   <v>      -0.00000000      -0.00000000       3.24483954 </v>
  </varray>
  <varray name="epsilon" >
   <v>       3.24483954       0.00000000       0.00000000 </v>
   <v>       0.00000000       3.24483954       0.00000000 </v>
   <v>      -0.00000000      -0.00000000       3.24483954 </v>
  </varray>
  <kpoints>
   <generation param="Gamma">
    <v type="int" name="divisions">       2        2        2 </v>
    <v name="usershift">      0.00000000       0.00000000       0.00000000 </v>
    <v name="genvec1">      0.50000000       0.00000000       0.00000000 </v>
    <v name="genvec2">      0.00000000       0.50000000       0.00000000 </v>
    <v name="genvec3">      0.00000000       0.00000000       0.50000000 </v>
    <v name="shift">      0.00000000       0.00000000       0.00000000 </v>
   </generation>
   <varray name="kpointlist" >
    <v>       0.00000000       0.00000000       0.00000000 </v>
    <v>       0.50000000       0.00000000       0.00000000 </v>
    <v>       0.50000000       0.50000000       0.00000000 </v>
   </varray>
   <varray name="weights" >
    <v>       0.12500000 </v>
    <v>       0.50000000 </v>
    <v>       0.37500000 </v>
   </varray>
  </kpoints>
  <array name="born_charges" >
   <dimension dim="1">ion</dimension>
   <set>
    <v>       1.54116678       0.00000000       0.00000000 </v>
    <v>       0.00000000       1.54116678       0.00000000 </v>
    <v>       0.00000000       0.00000000       1.54116678 </v>
   </set>
   <set>
    <v>      -1.54116678       0.00000000       0.00000000 </v>
    <v>       0.00000000      -1.54116678       0.00000000 </v>
    <v>       0.00000000       0.00000000      -1.54116678 </v>
   </set>
  </array>
  <time name="totalsc">    4.48    4.62</time>
  <eigenvalues>
   <array>
    <dimension dim="1">band</dimension>
    <dimension dim="2">kpoint</dimension>
    <dimension dim="3">spin</dimension>
    <field>eigene</field>
    <field>occ</field>
    <set>
     <set comment="spin 1">
      <set comment="kpoint 1">
       <r>  -21.8405    1.0000 </r>
       <r>  -21.8405    1.0000 </r>
       <r>  -21.8405    1.0000 </r>
       <r>  -13.3109    1.0000 </r>
       <r>   -0.7187    1.0000 </r>
       <r>   -0.7187    1.0000 </r>
       <r>   -0.7187    1.0000 </r>
       <r>    4.1937    0.0000 </r>
       <r>   10.3011    0.0000 </r>
       <r>   10.3011    0.0000 </r>
       <r>   10.3012    0.0000 </r>
       <r>   12.4463    0.0000 </r>
       <r>   12.4463    0.0000 </r>
       <r>   13.9960    0.0000 </r>
       <r>   15.9934    0.0000 </r>
       <r>   15.9934    0.0000 </r>
       <r>   15.9934    0.0000 </r>
       <r>   22.5094    0.0000 </r>
       <r>   25.5501    0.0000 </r>
       <r>   25.5501    0.0000 </r>
       <r>   25.5501    0.0000 </r>
       <r>   26.1468    0.0000 </r>
       <r>   26.1468    0.0000 </r>
       <r>   26.1468    0.0000 </r>
       <r>   29.6274    0.0000 </r>
       <r>   29.6274    0.0000 </r>
       <r>   32.9233    0.0000 </r>
       <r>   32.9233    0.0000 </r>
       <r>   32.9233    0.0000 </r>
       <r>   35.2793    0.0000 </r>
       <r>   35.2793    0.0000 </r>
       <r>   35.6339    0.0000 </r>
       <r>   36.9810    0.0000 </r>
       <r>   39.4666    0.0000 </r>
       <r>   39.4666    0.0000 </r>
       <r>   39.4667    0.0000 </r>
       <r>   43.2659    0.0000 </r>
       <r>   43.2659    0.0000 </r>
       <r>   43.2660    0.0000 </r>
       <r>   45.3736    0.0000 </r>
       <r>   45.3736    0.0000 </r>
       <r>   45.3736    0.0000 </r>
       <r>   46.3909    0.0000 </r>
       <r>   46.3909    0.0000 </r>
       <r>   46.3910    0.0000 </r>
       <r>   46.4968    0.0000 </r>
       <r>   47.7538    0.0000 </r>
       <r>   47.7538    0.0000 </r>
      </set>
      <set comment="kpoint 2">
       <r>  -21.8664    1.0000 </r>
       <r>  -21.8401    1.0000 </r>
       <r>  -21.8401    1.0000 </r>
       <r>  -12.9951    1.0000 </r>
       <r>   -2.6004    1.0000 </r>
       <r>   -0.9696    1.0000 </r>
       <r>   -0.9696    1.0000 </r>
       <r>    6.4218    0.0000 </r>
       <r>    9.6334    0.0000 </r>
       <r>   10.1094    0.0000 </r>
       <r>   10.1094    0.0000 </r>
       <r>   13.9748    0.0000 </r>
       <r>   15.3455    0.0000 </r>
       <r>   15.3455    0.0000 </r>
       <r>   16.2265    0.0000 </r>
       <r>   16.2265    0.0000 </r>
       <r>   16.5639    0.0000 </r>
       <r>   22.5847    0.0000 </r>
       <r>   22.5847    0.0000 </r>
       <r>   23.8282    0.0000 </r>
       <r>   24.3345    0.0000 </r>
       <r>   24.3345    0.0000 </r>
       <r>   26.0604    0.0000 </r>
       <r>   30.3276    0.0000 </r>
       <r>   30.3276    0.0000 </r>
       <r>   30.8859    0.0000 </r>
       <r>   30.8992    0.0000 </r>
       <r>   30.8993    0.0000 </r>
       <r>   31.0581    0.0000 </r>
       <r>   32.4835    0.0000 </r>
       <r>   35.3318    0.0000 </r>
       <r>   35.3319    0.0000 </r>
       <r>   35.3423    0.0000 </r>
       <r>   36.9663    0.0000 </r>
       <r>   37.0427    0.0000 </r>
       <r>   37.0427    0.0000 </r>
       <r>   37.7473    0.0000 </r>
       <r>   40.6733    0.0000 </r>
       <r>   44.3051    0.0000 </r>
       <r>   44.3052    0.0000 </r>
       <r>   44.5713    0.0000 </r>
       <r>   44.5714    0.0000 </r>
       <r>   44.8479    0.0000 </r>
       <r>   45.4148    0.0000 </r>
       <r>   47.0896    0.0000 </r>
       <r>   47.7240    0.0000 </r>
       <r>   47.7240    0.0000 </r>
       <r>   47.9875    0.0000 </r>
      </set>
      <set comment="kpoint 3">
       <r>  -21.8577    1.0000 </r>
       <r>  -21.8484    1.0000 </r>
       <r>  -21.8484    1.0000 </r>
       <r>  -12.9472    1.0000 </r>
       <r>   -2.3371    1.0000 </r>
       <r>   -1.3017    1.0000 </r>
       <r>   -1.3017    1.0000 </r>
       <r>    6.6180    0.0000 </r>
       <r>    7.3040    0.0000 </r>
       <r>   10.3735    0.0000 </r>
       <r>   13.7261    0.0000 </r>
       <r>   13.7261    0.0000 </r>
       <r>   14.4426    0.0000 </r>
       <r>   16.0373    0.0000 </r>
       <r>   16.2299    0.0000 </r>
       <r>   16.2299    0.0000 </r>
       <r>   21.3727    0.0000 </r>
       <r>   22.2781    0.0000 </r>
       <r>   22.2781    0.0000 </r>
       <r>   23.7052    0.0000 </r>
       <r>   23.8903    0.0000 </r>
       <r>   23.9352    0.0000 </r>
       <r>   24.9756    0.0000 </r>
       <r>   24.9756    0.0000 </r>
       <r>   26.5690    0.0000 </r>
       <r>   28.6247    0.0000 </r>
       <r>   30.9566    0.0000 </r>
       <r>   30.9566    0.0000 </r>
       <r>   31.7101    0.0000 </r>
       <r>   32.7771    0.0000 </r>
       <r>   36.7194    0.0000 </r>
       <r>   36.7194    0.0000 </r>
       <r>   36.9518    0.0000 </r>
       <r>   37.0299    0.0000 </r>
       <r>   37.1939    0.0000 </r>
       <r>   38.5653    0.0000 </r>
       <r>   39.0850    0.0000 </r>
       <r>   39.6160    0.0000 </r>
       <r>   41.5946    0.0000 </r>
       <r>   41.5947    0.0000 </r>
       <r>   44.3830    0.0000 </r>
       <r>   44.6606    0.0000 </r>
       <r>   44.6607    0.0000 </r>
       <r>   46.5550    0.0000 </r>
       <r>   46.5550    0.0000 </r>
       <r>   49.4855    0.0000 </r>
       <r>   49.8016    0.0000 </r>
       <r>   51.4128    0.0000 </r>
      </set>
     </set>
    </set>
   </array>
  </eigenvalues>
  <separator name="orbital magnetization" >
   <v name="MAGDIPOLOUT">      0.00000000      0.00000000      0.00000000</v>
  </separator>
  <dos>
   <i name="efermi">     -0.23985736 </i>
   <total>
    <array>
     <dimension dim="1">gridpoints</dimension>
     <dimension dim="2">spin</dimension>
     <field>energy</field>
     <field>total</field>
     <field>integrated</field>
     <set>
      <set comment="spin 1">
       <r>   -25.5303     0.0000     0.0000 </r>
       <r>   -25.2616     0.0000     0.0000 </r>
       <r>   -24.9930     0.0000     0.0000 </r>
       <r>   -24.7243     0.0000     0.0000 </r>
       <r>   -24.4556     0.0000     0.0000 </r>
       <r>   -24.1869     0.0000     0.0000 </r>
       <r>   -23.9182     0.0000     0.0000 </r>
       <r>   -23.6495     0.0000     0.0000 </r>
       <r>   -23.3808     0.0000     0.0000 </r>
       <r>   -23.1121     0.0000     0.0000 </r>
       <r>   -22.8434     0.0000     0.0000 </r>
       <r>   -22.5747     0.0000     0.0000 </r>
       <r>   -22.3061     0.0000     0.0000 </r>
       <r>   -22.0374     0.0926     0.0249 </r>
       <r>   -21.7687    19.3171     5.2152 </r>
       <r>   -21.5000     2.9208     6.0000 </r>
       <r>   -21.2313     0.0000     6.0000 </r>
       <r>   -20.9626     0.0000     6.0000 </r>
       <r>   -20.6939     0.0000     6.0000 </r>
       <r>   -20.4252     0.0000     6.0000 </r>
       <r>   -20.1565     0.0000     6.0000 </r>
       <r>   -19.8878     0.0000     6.0000 </r>
       <r>   -19.6191     0.0000     6.0000 </r>
       <r>   -19.3505     0.0000     6.0000 </r>
       <r>   -19.0818     0.0000     6.0000 </r>
       <r>   -18.8131     0.0000     6.0000 </r>
       <r>   -18.5444     0.0000     6.0000 </r>
       <r>   -18.2757     0.0000     6.0000 </r>
       <r>   -18.0070     0.0000     6.0000 </r>
       <r>   -17.7383     0.0000     6.0000 </r>
       <r>   -17.4696     0.0000     6.0000 </r>
       <r>   -17.2009     0.0000     6.0000 </r>
       <r>   -16.9322     0.0000     6.0000 </r>
       <r>   -16.6636     0.0000     6.0000 </r>
       <r>   -16.3949     0.0000     6.0000 </r>
       <r>   -16.1262     0.0000     6.0000 </r>
       <r>   -15.8575     0.0000     6.0000 </r>
       <r>   -15.5888     0.0000     6.0000 </r>
       <r>   -15.3201     0.0000     6.0000 </r>
       <r>   -15.0514     0.0000     6.0000 </r>
       <r>   -14.7827     0.0000     6.0000 </r>
       <r>   -14.5140     0.0000     6.0000 </r>
       <r>   -14.2453     0.0000     6.0000 </r>
       <r>   -13.9767     0.0000     6.0000 </r>
       <r>   -13.7080     0.0000     6.0000 </r>
       <r>   -13.4393     0.0324     6.0087 </r>
       <r>   -13.1706     0.9027     6.2512 </r>
       <r>   -12.9019     5.4315     7.7106 </r>
       <r>   -12.6332     1.0770     8.0000 </r>
       <r>   -12.3645     0.0000     8.0000 </r>
       <r>   -12.0958     0.0000     8.0000 </r>
       <r>   -11.8271     0.0000     8.0000 </r>
       <r>   -11.5584     0.0000     8.0000 </r>
       <r>   -11.2897     0.0000     8.0000 </r>
       <r>   -11.0211     0.0000     8.0000 </r>
       <r>   -10.7524     0.0000     8.0000 </r>
       <r>   -10.4837     0.0000     8.0000 </r>
       <r>   -10.2150     0.0000     8.0000 </r>
       <r>    -9.9463     0.0000     8.0000 </r>
       <r>    -9.6776     0.0000     8.0000 </r>
       <r>    -9.4089     0.0000     8.0000 </r>
       <r>    -9.1402     0.0000     8.0000 </r>
       <r>    -8.8715     0.0000     8.0000 </r>
       <r>    -8.6028     0.0000     8.0000 </r>
       <r>    -8.3342     0.0000     8.0000 </r>
       <r>    -8.0655     0.0000     8.0000 </r>
       <r>    -7.7968     0.0000     8.0000 </r>
       <r>    -7.5281     0.0000     8.0000 </r>
       <r>    -7.2594     0.0000     8.0000 </r>
       <r>    -6.9907     0.0000     8.0000 </r>
       <r>    -6.7220     0.0000     8.0000 </r>
       <r>    -6.4533     0.0000     8.0000 </r>
       <r>    -6.1846     0.0000     8.0000 </r>
       <r>    -5.9159     0.0000     8.0000 </r>
       <r>    -5.6473     0.0000     8.0000 </r>
       <r>    -5.3786     0.0000     8.0000 </r>
       <r>    -5.1099     0.0000     8.0000 </r>
       <r>    -4.8412     0.0000     8.0000 </r>
       <r>    -4.5725     0.0000     8.0000 </r>
       <r>    -4.3038     0.0000     8.0000 </r>
       <r>    -4.0351     0.0000     8.0000 </r>
       <r>    -3.7664     0.0000     8.0000 </r>
       <r>    -3.4977     0.0000     8.0000 </r>
       <r>    -3.2290     0.0000     8.0000 </r>
       <r>    -2.9603     0.0000     8.0000 </r>
       <r>    -2.6917     0.3665     8.0985 </r>
       <r>    -2.4230     3.6459     9.0781 </r>
       <r>    -2.1543     2.4870     9.7463 </r>
       <r>    -1.8856     0.0136     9.7500 </r>
       <r>    -1.6169     0.0000     9.7500 </r>
       <r>    -1.3482     1.4248    10.1328 </r>
       <r>    -1.0795     4.5997    11.3687 </r>
       <r>    -0.8108     7.1785    13.2975 </r>
       <r>    -0.5421     2.5969    13.9953 </r>
       <r>    -0.2734     0.0175    14.0000 </r>
       <r>    -0.0048     0.0000    14.0000 </r>
       <r>     0.2639     0.0000    14.0000 </r>
       <r>     0.5326     0.0000    14.0000 </r>
       <r>     0.8013     0.0000    14.0000 </r>
       <r>     1.0700     0.0000    14.0000 </r>
       <r>     1.3387     0.0000    14.0000 </r>
       <r>     1.6074     0.0000    14.0000 </r>
       <r>     1.8761     0.0000    14.0000 </r>
       <r>     2.1448     0.0000    14.0000 </r>
       <r>     2.4135     0.0000    14.0000 </r>
       <r>     2.6822     0.0000    14.0000 </r>
       <r>     2.9508     0.0000    14.0000 </r>
       <r>     3.2195     0.0000    14.0000 </r>
       <r>     3.4882     0.0000    14.0000 </r>
       <r>     3.7569     0.0000    14.0000 </r>
       <r>     4.0256     0.0081    14.0022 </r>
       <r>     4.2943     0.8503    14.2307 </r>
       <r>     4.5630     0.0720    14.2500 </r>
       <r>     4.8317     0.0000    14.2500 </r>
       <r>     5.1004     0.0000    14.2500 </r>
       <r>     5.3691     0.0000    14.2500 </r>
       <r>     5.6377     0.0000    14.2500 </r>
       <r>     5.9064     0.0000    14.2500 </r>
       <r>     6.1751     0.0009    14.2502 </r>
       <r>     6.4438     2.3349    14.8776 </r>
       <r>     6.7125     3.9239    15.9319 </r>
       <r>     6.9812     0.2533    16.0000 </r>
       <r>     7.2499     0.6198    16.1665 </r>
       <r>     7.5186     2.1681    16.7491 </r>
       <r>     7.7873     0.0034    16.7500 </r>
       <r>     8.0560     0.0000    16.7500 </r>
       <r>     8.3246     0.0000    16.7500 </r>
       <r>     8.5933     0.0000    16.7500 </r>
       <r>     8.8620     0.0000    16.7500 </r>
       <r>     9.1307     0.0000    16.7500 </r>
       <r>     9.3994     0.0017    16.7505 </r>
       <r>     9.6681     2.5597    17.4382 </r>
       <r>     9.9368     1.2148    17.7647 </r>
       <r>    10.2055     7.0112    19.6485 </r>
       <r>    10.4742     5.7246    21.1866 </r>
       <r>    10.7429     0.2359    21.2500 </r>
       <r>    11.0116     0.0000    21.2500 </r>
       <r>    11.2802     0.0000    21.2500 </r>
       <r>    11.5489     0.0000    21.2500 </r>
       <r>    11.8176     0.0000    21.2500 </r>
       <r>    12.0863     0.0000    21.2500 </r>
       <r>    12.3550     0.1830    21.2992 </r>
       <r>    12.6237     1.6666    21.7470 </r>
       <r>    12.8924     0.0113    21.7500 </r>
       <r>    13.1611     0.0000    21.7500 </r>
       <r>    13.4298     0.0001    21.7500 </r>
       <r>    13.6985     1.9423    22.2719 </r>
       <r>    13.9671     5.6572    23.7919 </r>
       <r>    14.2358     2.6393    24.5011 </r>
       <r>    14.5045     2.2549    25.1070 </r>
       <r>    14.7732     0.5323    25.2500 </r>
       <r>    15.0419     0.0001    25.2500 </r>
       <r>    15.3106     2.3147    25.8720 </r>
       <r>    15.5793     5.1252    27.2491 </r>
       <r>    15.8480     0.0694    27.2677 </r>
       <r>    16.1167     5.7911    28.8237 </r>
       <r>    16.3854    12.6036    32.2102 </r>
       <r>    16.6540     3.4933    33.1488 </r>
       <r>    16.9227     0.3767    33.2500 </r>
       <r>    17.1914     0.0000    33.2500 </r>
       <r>    17.4601     0.0000    33.2500 </r>
       <r>    17.7288     0.0000    33.2500 </r>
       <r>    17.9975     0.0000    33.2500 </r>
       <r>    18.2662     0.0000    33.2500 </r>
       <r>    18.5349     0.0000    33.2500 </r>
       <r>    18.8036     0.0000    33.2500 </r>
       <r>    19.0723     0.0000    33.2500 </r>
       <r>    19.3410     0.0000    33.2500 </r>
       <r>    19.6096     0.0000    33.2500 </r>
       <r>    19.8783     0.0000    33.2500 </r>
       <r>    20.1470     0.0000    33.2500 </r>
       <r>    20.4157     0.0000    33.2500 </r>
       <r>    20.6844     0.0000    33.2500 </r>
       <r>    20.9531     0.0000    33.2500 </r>
       <r>    21.2218     0.0458    33.2623 </r>
       <r>    21.4905     2.6118    33.9641 </r>
       <r>    21.7592     0.1337    34.0000 </r>
       <r>    22.0279     0.0011    34.0003 </r>
       <r>    22.2965     3.3663    34.9048 </r>
       <r>    22.5652     5.8612    36.4796 </r>
       <r>    22.8339     4.7264    37.7496 </r>
       <r>    23.1026     0.0016    37.7500 </r>
       <r>    23.3713     0.0000    37.7500 </r>
       <r>    23.6400     0.5126    37.8877 </r>
       <r>    23.9087     8.1905    40.0884 </r>
       <r>    24.1774     3.4894    41.0260 </r>
       <r>    24.4461     6.9199    42.8853 </r>
       <r>    24.7148     0.4275    43.0002 </r>
       <r>    24.9835     3.0385    43.8166 </r>
       <r>    25.2521     2.5433    44.4999 </r>
       <r>    25.5208     0.9480    44.7547 </r>
       <r>    25.7895     1.8428    45.2498 </r>
       <r>    26.0582     2.1085    45.8163 </r>
       <r>    26.3269     4.3907    46.9961 </r>
       <r>    26.5956     1.8189    47.4848 </r>
       <r>    26.8643     0.9870    47.7500 </r>
       <r>    27.1330     0.0000    47.7500 </r>
       <r>    27.4017     0.0000    47.7500 </r>
       <r>    27.6704     0.0000    47.7500 </r>
       <r>    27.9390     0.0000    47.7500 </r>
       <r>    28.2077     0.0000    47.7500 </r>
       <r>    28.4764     0.0502    47.7635 </r>
       <r>    28.7451     2.6174    48.4667 </r>
       <r>    29.0138     0.1238    48.5000 </r>
       <r>    29.2825     0.0000    48.5000 </r>
       <r>    29.5512     0.2616    48.5703 </r>
       <r>    29.8199     1.5932    48.9984 </r>
       <r>    30.0886     0.0087    49.0007 </r>
       <r>    30.3573     4.9293    50.3252 </r>
       <r>    30.6259     2.5123    51.0002 </r>
       <r>    30.8946     6.6722    52.7930 </r>
       <r>    31.1633    13.5319    56.4289 </r>
       <r>    31.4320     0.2649    56.5000 </r>
       <r>    31.7007     1.2488    56.8356 </r>
       <r>    31.9694     1.5421    57.2499 </r>
       <r>    32.2381     0.0013    57.2503 </r>
       <r>    32.5068     2.3401    57.8790 </r>
       <r>    32.7755     2.8011    58.6316 </r>
       <r>    33.0442     4.0402    59.7172 </r>
       <r>    33.3129     0.1221    59.7500 </r>
       <r>    33.5815     0.0000    59.7500 </r>
       <r>    33.8502     0.0000    59.7500 </r>
       <r>    34.1189     0.0000    59.7500 </r>
       <r>    34.3876     0.0000    59.7500 </r>
       <r>    34.6563     0.0000    59.7500 </r>
       <r>    34.9250     0.0000    59.7500 </r>
       <r>    35.1937     0.4654    59.8751 </r>
       <r>    35.4624    12.1509    63.1399 </r>
       <r>    35.7311     1.2614    63.4788 </r>
       <r>    35.9998     0.0788    63.5000 </r>
       <r>    36.2684     0.0000    63.5000 </r>
       <r>    36.5371     0.0278    63.5075 </r>
       <r>    36.8058     5.0456    64.8632 </r>
       <r>    37.0745    14.7125    68.8163 </r>
       <r>    37.3432     6.2179    70.4870 </r>
       <r>    37.6119     0.1517    70.5277 </r>
       <r>    37.8806     3.5079    71.4703 </r>
       <r>    38.1493     0.1107    71.5000 </r>
       <r>    38.4180     0.0520    71.5140 </r>
       <r>    38.6867     2.6193    72.2177 </r>
       <r>    38.9553     0.2132    72.2750 </r>
       <r>    39.2240     2.6303    72.9818 </r>
       <r>    39.4927     1.9789    73.5135 </r>
       <r>    39.7614     3.6162    74.4851 </r>
       <r>    40.0301     0.0555    74.5000 </r>
       <r>    40.2988     0.0000    74.5000 </r>
       <r>    40.5675     0.2502    74.5672 </r>
       <r>    40.8362     3.4320    75.4894 </r>
       <r>    41.1049     0.0396    75.5000 </r>
       <r>    41.3736     0.0049    75.5013 </r>
       <r>    41.6423     4.1801    76.6245 </r>
       <r>    41.9109     1.3975    77.0000 </r>
       <r>    42.1796     0.0000    77.0000 </r>
       <r>    42.4483     0.0000    77.0000 </r>
       <r>    42.7170     0.0000    77.0000 </r>
       <r>    42.9857     0.0001    77.0000 </r>
       <r>    43.2544     1.2144    77.3263 </r>
       <r>    43.5231     1.5764    77.7499 </r>
       <r>    43.7918     0.0004    77.7500 </r>
       <r>    44.0605     0.0020    77.7505 </r>
       <r>    44.3292     5.3342    79.1838 </r>
       <r>    44.5978    10.7507    82.0724 </r>
       <r>    44.8665     9.4121    84.6013 </r>
       <r>    45.1352     1.4848    85.0003 </r>
       <r>    45.4039     3.4904    85.9381 </r>
       <r>    45.6726     3.0210    86.7499 </r>
       <r>    45.9413     0.0005    86.7500 </r>
       <r>    46.2100     0.0147    86.7539 </r>
       <r>    46.4787     3.6303    87.7294 </r>
       <r>    46.7474     5.6410    89.2451 </r>
       <r>    47.0161     0.5741    89.3993 </r>
       <r>    47.2848     3.1553    90.2471 </r>
       <r>    47.5534     0.0741    90.2670 </r>
       <r>    47.8221     8.3520    92.5111 </r>
       <r>    48.0908     4.3431    93.6781 </r>
       <r>    48.3595     0.2677    93.7500 </r>
       <r>    48.6282     0.0000    93.7500 </r>
       <r>    48.8969     0.0000    93.7500 </r>
       <r>    49.1656     0.0000    93.7500 </r>
       <r>    49.4343     0.6541    93.9258 </r>
       <r>    49.7030     2.3618    94.5603 </r>
       <r>    49.9717     2.5442    95.2439 </r>
       <r>    50.2403     0.0226    95.2500 </r>
       <r>    50.5090     0.0000    95.2500 </r>
       <r>    50.7777     0.0000    95.2500 </r>
       <r>    51.0464     0.0000    95.2500 </r>
       <r>    51.3151     0.2331    95.3126 </r>
       <r>    51.5838     2.5364    95.9941 </r>
       <r>    51.8525     0.0218    96.0000 </r>
       <r>    52.1212     0.0000    96.0000 </r>
       <r>    52.3899     0.0000    96.0000 </r>
       <r>    52.6586     0.0000    96.0000 </r>
       <r>    52.9272     0.0000    96.0000 </r>
       <r>    53.1959     0.0000    96.0000 </r>
       <r>    53.4646     0.0000    96.0000 </r>
       <r>    53.7333     0.0000    96.0000 </r>
       <r>    54.0020     0.0000    96.0000 </r>
       <r>    54.2707     0.0000    96.0000 </r>
       <r>    54.5394     0.0000    96.0000 </r>
       <r>    54.8081     0.0000    96.0000 </r>
       <r>    55.0768     0.0000    96.0000 </r>
      </set>
     </set>
    </array>
   </total>
  </dos>
 </calculation>
 <structure name="finalpos" >
  <crystal>
   <varray name="basis" >
    <v>       0.00000000       2.84515074       2.84515074 </v>
    <v>       2.84515074       0.00000000       2.84515074 </v>
    <v>       2.84515074       2.84515074       0.00000000 </v>
   </varray>
   <i name="volume">     46.06232310 </i>
   <varray name="rec_basis" >
    <v>      -0.17573761       0.17573761       0.17573761 </v>
    <v>       0.17573761      -0.17573761       0.17573761 </v>
    <v>       0.17573761       0.17573761      -0.17573761 </v>
   </varray>
  </crystal>
  <varray name="positions" >
   <v>       0.00000000       0.00000000       0.00000000 </v>
   <v>       0.50000000       0.50000000       0.50000000 </v>
  </varray>
 </structure>
</modeling>
