[Molden Format]
[Atoms] AU
C_1        1     6        -0.2827030283        -1.4027437026         0.0000000000
C_2        2     6         0.0000000000         1.3606028100         0.0000000000
C_3        3     6         2.3226623802         2.3927712195         0.0000000000
O          4     8        -2.3268197777        -2.4649587574         0.0000000000
H_1        5     1         1.5131037083        -2.4793206760         0.0000000000
H_2        6     1        -1.7132257049         2.4834780735         0.0000000000
H_3        7     1         2.5919483530         4.4272503656         0.0000000000
H_4        8     1         3.9820308906         1.1854251982         0.0000000000
[GTO]
    1 0
 s  11 1.00
   0.4563240000000000E+04   0.1966650000000000E-02
   0.6820240000000000E+03   0.1523060000000000E-01
   0.1549730000000000E+03   0.7612690000000000E-01
   0.4445530000000000E+02   0.2608010000000000E+00
   0.1302900000000000E+02   0.6164620000000000E+00
   0.1827730000000000E+01   0.2210060000000000E+00
   0.2096420000000000E+02   0.0000000000000000E+00
   0.4803310000000000E+01   0.0000000000000000E+00
   0.1459330000000000E+01   0.0000000000000000E+00
   0.4834560000000000E+00   0.0000000000000000E+00
   0.1455850000000000E+00   0.0000000000000000E+00
 s  11 1.00
   0.4563240000000000E+04   0.0000000000000000E+00
   0.6820240000000000E+03   0.0000000000000000E+00
   0.1549730000000000E+03   0.0000000000000000E+00
   0.4445530000000000E+02   0.0000000000000000E+00
   0.1302900000000000E+02   0.0000000000000000E+00
   0.1827730000000000E+01   0.0000000000000000E+00
   0.2096420000000000E+02   0.1146600000000000E+00
   0.4803310000000000E+01   0.9199990000000000E+00
   0.1459330000000000E+01  -0.3030680000000000E-02
   0.4834560000000000E+00   0.0000000000000000E+00
   0.1455850000000000E+00   0.0000000000000000E+00
 s  11 1.00
   0.4563240000000000E+04   0.0000000000000000E+00
   0.6820240000000000E+03   0.0000000000000000E+00
   0.1549730000000000E+03   0.0000000000000000E+00
   0.4445530000000000E+02   0.0000000000000000E+00
   0.1302900000000000E+02   0.0000000000000000E+00
   0.1827730000000000E+01   0.0000000000000000E+00
   0.2096420000000000E+02   0.0000000000000000E+00
   0.4803310000000000E+01   0.0000000000000000E+00
   0.1459330000000000E+01   0.0000000000000000E+00
   0.4834560000000000E+00   0.1000000000000000E+01
   0.1455850000000000E+00   0.0000000000000000E+00
 s  11 1.00
   0.4563240000000000E+04   0.0000000000000000E+00
   0.6820240000000000E+03   0.0000000000000000E+00
   0.1549730000000000E+03   0.0000000000000000E+00
   0.4445530000000000E+02   0.0000000000000000E+00
   0.1302900000000000E+02   0.0000000000000000E+00
   0.1827730000000000E+01   0.0000000000000000E+00
   0.2096420000000000E+02   0.0000000000000000E+00
   0.4803310000000000E+01   0.0000000000000000E+00
   0.1459330000000000E+01   0.0000000000000000E+00
   0.4834560000000000E+00   0.0000000000000000E+00
   0.1455850000000000E+00   0.1000000000000000E+01
 p   5 1.00
   0.2096420000000000E+02   0.4024870000000000E-01
   0.4803310000000000E+01   0.2375940000000000E+00
   0.1459330000000000E+01   0.8158540000000000E+00
   0.4834560000000000E+00   0.0000000000000000E+00
   0.1455850000000000E+00   0.0000000000000000E+00
 p   5 1.00
   0.2096420000000000E+02   0.0000000000000000E+00
   0.4803310000000000E+01   0.0000000000000000E+00
   0.1459330000000000E+01   0.0000000000000000E+00
   0.4834560000000000E+00   0.1000000000000000E+01
   0.1455850000000000E+00   0.0000000000000000E+00
 p   5 1.00
   0.2096420000000000E+02   0.0000000000000000E+00
   0.4803310000000000E+01   0.0000000000000000E+00
   0.1459330000000000E+01   0.0000000000000000E+00
   0.4834560000000000E+00   0.0000000000000000E+00
   0.1455850000000000E+00   0.1000000000000000E+01

    2 0
 s  11 1.00
   0.4563240000000000E+04   0.1966650000000000E-02
   0.6820240000000000E+03   0.1523060000000000E-01
   0.1549730000000000E+03   0.7612690000000000E-01
   0.4445530000000000E+02   0.2608010000000000E+00
   0.1302900000000000E+02   0.6164620000000000E+00
   0.1827730000000000E+01   0.2210060000000000E+00
   0.2096420000000000E+02   0.0000000000000000E+00
   0.4803310000000000E+01   0.0000000000000000E+00
   0.1459330000000000E+01   0.0000000000000000E+00
   0.4834560000000000E+00   0.0000000000000000E+00
   0.1455850000000000E+00   0.0000000000000000E+00
 s  11 1.00
   0.4563240000000000E+04   0.0000000000000000E+00
   0.6820240000000000E+03   0.0000000000000000E+00
   0.1549730000000000E+03   0.0000000000000000E+00
   0.4445530000000000E+02   0.0000000000000000E+00
   0.1302900000000000E+02   0.0000000000000000E+00
   0.1827730000000000E+01   0.0000000000000000E+00
   0.2096420000000000E+02   0.1146600000000000E+00
   0.4803310000000000E+01   0.9199990000000000E+00
   0.1459330000000000E+01  -0.3030680000000000E-02
   0.4834560000000000E+00   0.0000000000000000E+00
   0.1455850000000000E+00   0.0000000000000000E+00
 s  11 1.00
   0.4563240000000000E+04   0.0000000000000000E+00
   0.6820240000000000E+03   0.0000000000000000E+00
   0.1549730000000000E+03   0.0000000000000000E+00
   0.4445530000000000E+02   0.0000000000000000E+00
   0.1302900000000000E+02   0.0000000000000000E+00
   0.1827730000000000E+01   0.0000000000000000E+00
   0.2096420000000000E+02   0.0000000000000000E+00
   0.4803310000000000E+01   0.0000000000000000E+00
   0.1459330000000000E+01   0.0000000000000000E+00
   0.4834560000000000E+00   0.1000000000000000E+01
   0.1455850000000000E+00   0.0000000000000000E+00
 s  11 1.00
   0.4563240000000000E+04   0.0000000000000000E+00
   0.6820240000000000E+03   0.0000000000000000E+00
   0.1549730000000000E+03   0.0000000000000000E+00
   0.4445530000000000E+02   0.0000000000000000E+00
   0.1302900000000000E+02   0.0000000000000000E+00
   0.1827730000000000E+01   0.0000000000000000E+00
   0.2096420000000000E+02   0.0000000000000000E+00
   0.4803310000000000E+01   0.0000000000000000E+00
   0.1459330000000000E+01   0.0000000000000000E+00
   0.4834560000000000E+00   0.0000000000000000E+00
   0.1455850000000000E+00   0.1000000000000000E+01
 p   5 1.00
   0.2096420000000000E+02   0.4024870000000000E-01
   0.4803310000000000E+01   0.2375940000000000E+00
   0.1459330000000000E+01   0.8158540000000000E+00
   0.4834560000000000E+00   0.0000000000000000E+00
   0.1455850000000000E+00   0.0000000000000000E+00
 p   5 1.00
   0.2096420000000000E+02   0.0000000000000000E+00
   0.4803310000000000E+01   0.0000000000000000E+00
   0.1459330000000000E+01   0.0000000000000000E+00
   0.4834560000000000E+00   0.1000000000000000E+01
   0.1455850000000000E+00   0.0000000000000000E+00
 p   5 1.00
   0.2096420000000000E+02   0.0000000000000000E+00
   0.4803310000000000E+01   0.0000000000000000E+00
   0.1459330000000000E+01   0.0000000000000000E+00
   0.4834560000000000E+00   0.0000000000000000E+00
   0.1455850000000000E+00   0.1000000000000000E+01

    3 0
 s  11 1.00
   0.4563240000000000E+04   0.1966650000000000E-02
   0.6820240000000000E+03   0.1523060000000000E-01
   0.1549730000000000E+03   0.7612690000000000E-01
   0.4445530000000000E+02   0.2608010000000000E+00
   0.1302900000000000E+02   0.6164620000000000E+00
   0.1827730000000000E+01   0.2210060000000000E+00
   0.2096420000000000E+02   0.0000000000000000E+00
   0.4803310000000000E+01   0.0000000000000000E+00
   0.1459330000000000E+01   0.0000000000000000E+00
   0.4834560000000000E+00   0.0000000000000000E+00
   0.1455850000000000E+00   0.0000000000000000E+00
 s  11 1.00
   0.4563240000000000E+04   0.0000000000000000E+00
   0.6820240000000000E+03   0.0000000000000000E+00
   0.1549730000000000E+03   0.0000000000000000E+00
   0.4445530000000000E+02   0.0000000000000000E+00
   0.1302900000000000E+02   0.0000000000000000E+00
   0.1827730000000000E+01   0.0000000000000000E+00
   0.2096420000000000E+02   0.1146600000000000E+00
   0.4803310000000000E+01   0.9199990000000000E+00
   0.1459330000000000E+01  -0.3030680000000000E-02
   0.4834560000000000E+00   0.0000000000000000E+00
   0.1455850000000000E+00   0.0000000000000000E+00
 s  11 1.00
   0.4563240000000000E+04   0.0000000000000000E+00
   0.6820240000000000E+03   0.0000000000000000E+00
   0.1549730000000000E+03   0.0000000000000000E+00
   0.4445530000000000E+02   0.0000000000000000E+00
   0.1302900000000000E+02   0.0000000000000000E+00
   0.1827730000000000E+01   0.0000000000000000E+00
   0.2096420000000000E+02   0.0000000000000000E+00
   0.4803310000000000E+01   0.0000000000000000E+00
   0.1459330000000000E+01   0.0000000000000000E+00
   0.4834560000000000E+00   0.1000000000000000E+01
   0.1455850000000000E+00   0.0000000000000000E+00
 s  11 1.00
   0.4563240000000000E+04   0.0000000000000000E+00
   0.6820240000000000E+03   0.0000000000000000E+00
   0.1549730000000000E+03   0.0000000000000000E+00
   0.4445530000000000E+02   0.0000000000000000E+00
   0.1302900000000000E+02   0.0000000000000000E+00
   0.1827730000000000E+01   0.0000000000000000E+00
   0.2096420000000000E+02   0.0000000000000000E+00
   0.4803310000000000E+01   0.0000000000000000E+00
   0.1459330000000000E+01   0.0000000000000000E+00
   0.4834560000000000E+00   0.0000000000000000E+00
   0.1455850000000000E+00   0.1000000000000000E+01
 p   5 1.00
   0.2096420000000000E+02   0.4024870000000000E-01
   0.4803310000000000E+01   0.2375940000000000E+00
   0.1459330000000000E+01   0.8158540000000000E+00
   0.4834560000000000E+00   0.0000000000000000E+00
   0.1455850000000000E+00   0.0000000000000000E+00
 p   5 1.00
   0.2096420000000000E+02   0.0000000000000000E+00
   0.4803310000000000E+01   0.0000000000000000E+00
   0.1459330000000000E+01   0.0000000000000000E+00
   0.4834560000000000E+00   0.1000000000000000E+01
   0.1455850000000000E+00   0.0000000000000000E+00
 p   5 1.00
   0.2096420000000000E+02   0.0000000000000000E+00
   0.4803310000000000E+01   0.0000000000000000E+00
   0.1459330000000000E+01   0.0000000000000000E+00
   0.4834560000000000E+00   0.0000000000000000E+00
   0.1455850000000000E+00   0.1000000000000000E+01

    4 0
 s  11 1.00
   0.8588500000000000E+04   0.1895150000000000E-02
   0.1297230000000000E+04   0.1438590000000000E-01
   0.2992960000000000E+03   0.7073200000000000E-01
   0.8737710000000000E+02   0.2400010000000000E+00
   0.2567890000000000E+02   0.5947970000000000E+00
   0.3740040000000000E+01   0.2808020000000000E+00
   0.4211750000000000E+02   0.0000000000000000E+00
   0.9628370000000000E+01   0.0000000000000000E+00
   0.2853320000000000E+01   0.0000000000000000E+00
   0.9056610000000000E+00   0.0000000000000000E+00
   0.2556110000000000E+00   0.0000000000000000E+00
 s  11 1.00
   0.8588500000000000E+04   0.0000000000000000E+00
   0.1297230000000000E+04   0.0000000000000000E+00
   0.2992960000000000E+03   0.0000000000000000E+00
   0.8737710000000000E+02   0.0000000000000000E+00
   0.2567890000000000E+02   0.0000000000000000E+00
   0.3740040000000000E+01   0.0000000000000000E+00
   0.4211750000000000E+02   0.1138890000000000E+00
   0.9628370000000000E+01   0.9208110000000000E+00
   0.2853320000000000E+01  -0.3274470000000000E-02
   0.9056610000000000E+00   0.0000000000000000E+00
   0.2556110000000000E+00   0.0000000000000000E+00
 s  11 1.00
   0.8588500000000000E+04   0.0000000000000000E+00
   0.1297230000000000E+04   0.0000000000000000E+00
   0.2992960000000000E+03   0.0000000000000000E+00
   0.8737710000000000E+02   0.0000000000000000E+00
   0.2567890000000000E+02   0.0000000000000000E+00
   0.3740040000000000E+01   0.0000000000000000E+00
   0.4211750000000000E+02   0.0000000000000000E+00
   0.9628370000000000E+01   0.0000000000000000E+00
   0.2853320000000000E+01   0.0000000000000000E+00
   0.9056610000000000E+00   0.1000000000000000E+01
   0.2556110000000000E+00   0.0000000000000000E+00
 s  11 1.00
   0.8588500000000000E+04   0.0000000000000000E+00
   0.1297230000000000E+04   0.0000000000000000E+00
   0.2992960000000000E+03   0.0000000000000000E+00
   0.8737710000000000E+02   0.0000000000000000E+00
   0.2567890000000000E+02   0.0000000000000000E+00
   0.3740040000000000E+01   0.0000000000000000E+00
   0.4211750000000000E+02   0.0000000000000000E+00
   0.9628370000000000E+01   0.0000000000000000E+00
   0.2853320000000000E+01   0.0000000000000000E+00
   0.9056610000000000E+00   0.0000000000000000E+00
   0.2556110000000000E+00   0.1000000000000000E+01
 p   5 1.00
   0.4211750000000000E+02   0.3651140000000000E-01
   0.9628370000000000E+01   0.2371530000000000E+00
   0.2853320000000000E+01   0.8197020000000000E+00
   0.9056610000000000E+00   0.0000000000000000E+00
   0.2556110000000000E+00   0.0000000000000000E+00
 p   5 1.00
   0.4211750000000000E+02   0.0000000000000000E+00
   0.9628370000000000E+01   0.0000000000000000E+00
   0.2853320000000000E+01   0.0000000000000000E+00
   0.9056610000000000E+00   0.1000000000000000E+01
   0.2556110000000000E+00   0.0000000000000000E+00
 p   5 1.00
   0.4211750000000000E+02   0.0000000000000000E+00
   0.9628370000000000E+01   0.0000000000000000E+00
   0.2853320000000000E+01   0.0000000000000000E+00
   0.9056610000000000E+00   0.0000000000000000E+00
   0.2556110000000000E+00   0.1000000000000000E+01

    5 0
 s   5 1.00
   0.3386500000000000E+02   0.2549380000000000E-01
   0.5094790000000000E+01   0.1903730000000000E+00
   0.1158790000000000E+01   0.8521609999999999E+00
   0.3258400000000000E+00   0.0000000000000000E+00
   0.1027410000000000E+00   0.0000000000000000E+00
 s   5 1.00
   0.3386500000000000E+02   0.0000000000000000E+00
   0.5094790000000000E+01   0.0000000000000000E+00
   0.1158790000000000E+01   0.0000000000000000E+00
   0.3258400000000000E+00   0.1000000000000000E+01
   0.1027410000000000E+00   0.0000000000000000E+00
 s   5 1.00
   0.3386500000000000E+02   0.0000000000000000E+00
   0.5094790000000000E+01   0.0000000000000000E+00
   0.1158790000000000E+01   0.0000000000000000E+00
   0.3258400000000000E+00   0.0000000000000000E+00
   0.1027410000000000E+00   0.1000000000000000E+01

    6 0
 s   5 1.00
   0.3386500000000000E+02   0.2549380000000000E-01
   0.5094790000000000E+01   0.1903730000000000E+00
   0.1158790000000000E+01   0.8521609999999999E+00
   0.3258400000000000E+00   0.0000000000000000E+00
   0.1027410000000000E+00   0.0000000000000000E+00
 s   5 1.00
   0.3386500000000000E+02   0.0000000000000000E+00
   0.5094790000000000E+01   0.0000000000000000E+00
   0.1158790000000000E+01   0.0000000000000000E+00
   0.3258400000000000E+00   0.1000000000000000E+01
   0.1027410000000000E+00   0.0000000000000000E+00
 s   5 1.00
   0.3386500000000000E+02   0.0000000000000000E+00
   0.5094790000000000E+01   0.0000000000000000E+00
   0.1158790000000000E+01   0.0000000000000000E+00
   0.3258400000000000E+00   0.0000000000000000E+00
   0.1027410000000000E+00   0.1000000000000000E+01

    7 0
 s   5 1.00
   0.3386500000000000E+02   0.2549380000000000E-01
   0.5094790000000000E+01   0.1903730000000000E+00
   0.1158790000000000E+01   0.8521609999999999E+00
   0.3258400000000000E+00   0.0000000000000000E+00
   0.1027410000000000E+00   0.0000000000000000E+00
 s   5 1.00
   0.3386500000000000E+02   0.0000000000000000E+00
   0.5094790000000000E+01   0.0000000000000000E+00
   0.1158790000000000E+01   0.0000000000000000E+00
   0.3258400000000000E+00   0.1000000000000000E+01
   0.1027410000000000E+00   0.0000000000000000E+00
 s   5 1.00
   0.3386500000000000E+02   0.0000000000000000E+00
   0.5094790000000000E+01   0.0000000000000000E+00
   0.1158790000000000E+01   0.0000000000000000E+00
   0.3258400000000000E+00   0.0000000000000000E+00
   0.1027410000000000E+00   0.1000000000000000E+01

    8 0
 s   5 1.00
   0.3386500000000000E+02   0.2549380000000000E-01
   0.5094790000000000E+01   0.1903730000000000E+00
   0.1158790000000000E+01   0.8521609999999999E+00
   0.3258400000000000E+00   0.0000000000000000E+00
   0.1027410000000000E+00   0.0000000000000000E+00
 s   5 1.00
   0.3386500000000000E+02   0.0000000000000000E+00
   0.5094790000000000E+01   0.0000000000000000E+00
   0.1158790000000000E+01   0.0000000000000000E+00
   0.3258400000000000E+00   0.1000000000000000E+01
   0.1027410000000000E+00   0.0000000000000000E+00
 s   5 1.00
   0.3386500000000000E+02   0.0000000000000000E+00
   0.5094790000000000E+01   0.0000000000000000E+00
   0.1158790000000000E+01   0.0000000000000000E+00
   0.3258400000000000E+00   0.0000000000000000E+00
   0.1027410000000000E+00   0.1000000000000000E+01

[SCFCONV]
scf-first  1  THROUGH  13
     -189.9708623338
     -190.5683526494
     -190.7120695026
     -190.7189692351
     -190.7197277342
     -190.7198035577
     -190.7198101350
     -190.7198112710
     -190.7198114033
     -190.7198114219
     -190.7198114242
     -190.7198114244
     -190.7198114244
[TITLE]
*** Dalton interface to Molden, wave function type : HF             5Jun25   22:
[5D7F]
[9G]
[MO]
Sym= A'
Ene=  -20.5680
Spin= Alpha
Occup=  2.0000
    1  -0.6891475705804245E-005
    2   0.7490720350525488E-004
    3  -0.2967868570752989E-003
    4  -0.2256835379767888E-003
    5   0.1252131946460294E-003
    6   0.6554619348746937E-004
    7   0.0000000000000000E+000
    8   0.1942173163188316E-003
    9   0.9965314855925905E-004
   10   0.0000000000000000E+000
   11   0.5167947012094601E-003
   12   0.5259629911750056E-004
   13   0.0000000000000000E+000
   14  -0.8761092724563398E-006
   15  -0.3906117308715362E-005
   16   0.1098286650985764E-004
   17   0.4431982438008561E-004
   18   0.1538975396662863E-004
   19   0.7926980926044612E-005
   20   0.0000000000000000E+000
   21  -0.5372959280789860E-004
   22  -0.4648817375877974E-004
   23   0.0000000000000000E+000
   24  -0.3286175938679730E-003
   25   0.1930912745178670E-004
   26   0.0000000000000000E+000
   27   0.1850375872316281E-005
   28  -0.7557240634597076E-005
   29   0.4542231826182336E-004
   30   0.1844540584555389E-003
   31   0.7998362179012515E-005
   32   0.1095067191624295E-004
   33   0.0000000000000000E+000
   34  -0.4365412726283112E-004
   35  -0.4669480654608228E-004
   36   0.0000000000000000E+000
   37  -0.1122830656859705E-004
   38   0.1102847766175654E-003
   39   0.0000000000000000E+000
   40  -0.5514849633667581E+000
   41  -0.4716981406560421E+000
   42  -0.5420599956486332E-002
   43   0.7566546928858234E-003
   44  -0.2192370596828581E-002
   45  -0.1162528019561352E-002
   46   0.0000000000000000E+000
   47   0.7603024936724780E-003
   48   0.4013330154927812E-003
   49   0.0000000000000000E+000
   50  -0.7559113182492801E-004
   51  -0.8950971833249534E-005
   52   0.0000000000000000E+000
   53   0.2341095450729428E-004
   54  -0.9975560798429305E-004
   55  -0.8221084883075119E-004
   56   0.7014470892937332E-005
   57  -0.1085336827966653E-003
   58  -0.9860140611510327E-004
   59   0.1470603325986671E-004
   60  -0.5856486289380176E-004
   61  -0.5214832271234541E-004
   62  -0.3298073577692014E-005
   63   0.2911049149432391E-004
   64  -0.1314389770459624E-004
Sym= A'
Ene=  -11.3533
Spin= Alpha
Occup=  2.0000
    1   0.5633705571841646E+000
    2   0.4666313598040139E+000
    3   0.4099700429125622E-002
    4  -0.1144605992457540E-002
    5  -0.8745464851202604E-003
    6  -0.3525552435675011E-003
    7   0.0000000000000000E+000
    8   0.3431269558667255E-003
    9   0.1780617560198492E-003
   10   0.0000000000000000E+000
   11  -0.2401915668799881E-003
   12  -0.3376928948791359E-003
   13   0.0000000000000000E+000
   14   0.2555220409548307E-002
   15   0.2049975673308997E-002
   16   0.3089507222323147E-003
   17   0.4258154732694325E-003
   18  -0.1109592510557650E-004
   19  -0.1507773086306848E-003
   20   0.0000000000000000E+000
   21  -0.5198240284530650E-004
   22  -0.2611676077823088E-003
   23   0.0000000000000000E+000
   24  -0.1383123862050310E-003
   25  -0.8473379519458295E-004
   26   0.0000000000000000E+000
   27   0.1854455853012546E-006
   28   0.5909193027483420E-005
   29  -0.4823548469278574E-004
   30   0.1253910694541134E-003
   31   0.4045795033335173E-005
   32  -0.1100723725831121E-004
   33   0.0000000000000000E+000
   34  -0.2217731794969962E-005
   35   0.5654985422484893E-004
   36   0.0000000000000000E+000
   37  -0.4377440053463673E-005
   38  -0.2692234190820276E-003
   39   0.0000000000000000E+000
   40  -0.1850539740180582E-003
   41  -0.2999593668198659E-003
   42   0.7206252852344957E-003
   43   0.5225566339221006E-004
   44   0.2310868346600125E-003
   45   0.1243034135199294E-003
   46   0.0000000000000000E+000
   47   0.6849722743434050E-003
   48   0.3447717240054750E-003
   49   0.0000000000000000E+000
   50  -0.1263918980195694E-003
   51  -0.2028007451540042E-005
   52   0.0000000000000000E+000
   53   0.3457540546390129E-003
   54   0.1225804695408154E-003
   55   0.2707300962324273E-003
   56   0.7811857955324372E-006
   57  -0.1163500990886125E-003
   58  -0.1008821885483418E-004
   59  -0.1389952589724438E-004
   60   0.7998121665552033E-004
   61   0.9285172281951299E-004
   62   0.3258036656176023E-005
   63  -0.7034486040676751E-004
   64  -0.5539811149289040E-004
Sym= A'
Ene=  -11.2800
Spin= Alpha
Occup=  2.0000
    1  -0.1918594102416198E-003
    2  -0.1549033100298344E-003
    3  -0.3496082382437855E-004
    4   0.6442724153878203E-004
    5   0.1579965785278476E-004
    6   0.2055050180209585E-004
    7   0.0000000000000000E+000
    8  -0.5726992402840161E-004
    9  -0.4022022126948051E-004
   10   0.0000000000000000E+000
   11   0.2114985483686768E-003
   12   0.6352030214608088E-004
   13   0.0000000000000000E+000
   14   0.4085280931209408E-001
   15   0.3373600435022472E-001
   16   0.7432170974444511E-003
   17   0.4763098211406629E-003
   18   0.2170626198355499E-003
   19   0.8089108004687315E-004
   20   0.0000000000000000E+000
   21   0.3113325108351782E-003
   22   0.1393229787824679E-003
   23   0.0000000000000000E+000
   24  -0.3650047337242737E-004
   25   0.1216214375819175E-003
   26   0.0000000000000000E+000
   27   0.5618312207124758E+000
   28   0.4653628055845976E+000
   29   0.4255438344509825E-002
   30  -0.1150670719521433E-002
   31  -0.1220208423693003E-004
   32  -0.7854908021883315E-004
   33   0.0000000000000000E+000
   34  -0.1450678740672722E-003
   35  -0.5108615650847468E-004
   36   0.0000000000000000E+000
   37   0.2345607616227352E-003
   38   0.8910970156831399E-004
   39   0.0000000000000000E+000
   40   0.2800648782124366E-006
   41   0.3025366402329688E-005
   42  -0.2447855464612501E-004
   43   0.1090928659021619E-003
   44   0.2332353520176431E-005
   45   0.7488396332859219E-006
   46   0.0000000000000000E+000
   47  -0.8905356785869067E-005
   48   0.6270820913789457E-006
   49   0.0000000000000000E+000
   50   0.1321208790932644E-005
   51  -0.3948663553767013E-005
   52   0.0000000000000000E+000
   53   0.7011601586349885E-005
   54  -0.7745057285764008E-004
   55  -0.2162045415042799E-004
   56   0.4334200538182388E-004
   57  -0.1607290420262726E-003
   58   0.1503528932719704E-004
   59   0.3912300310628428E-003
   60   0.9261125433065625E-004
   61   0.2099302393901801E-003
   62   0.3904961025887574E-003
   63   0.9681058248777083E-004
   64   0.1961467951004412E-003
Sym= A'
Ene=  -11.2690
Spin= Alpha
Occup=  2.0000
    1   0.2668205301966868E-002
    2   0.2280884086964890E-002
    3  -0.3007023991197845E-003
    4  -0.8143581299130208E-003
    5  -0.1702595689769257E-004
    6  -0.1719197202495981E-003
    7   0.0000000000000000E+000
    8  -0.2598340546322517E-004
    9  -0.2592161854824159E-003
   10   0.0000000000000000E+000
   11  -0.1805986795555185E-003
   12  -0.2651224302864318E-003
   13   0.0000000000000000E+000
   14  -0.5618061515056438E+000
   15  -0.4653424961233599E+000
   16  -0.4480923289650023E-002
   17   0.2156017810564427E-002
   18  -0.1742313656723119E-003
   19   0.2136662407276376E-003
   20   0.0000000000000000E+000
   21  -0.3005218549033074E-004
   22  -0.6760552349118265E-004
   23   0.0000000000000000E+000
   24   0.7224417905666075E-003
   25  -0.3136864491332044E-003
   26   0.0000000000000000E+000
   27   0.4107290793617299E-001
   28   0.3411887842339204E-001
   29  -0.9122363520836833E-004
   30  -0.1286702949903741E-002
   31   0.2132543211696017E-003
   32   0.8065258030769095E-004
   33   0.0000000000000000E+000
   34   0.2801556154983235E-003
   35   0.1534391288726673E-003
   36   0.0000000000000000E+000
   37   0.2324254370386609E-003
   38   0.4091098284237974E-003
   39   0.0000000000000000E+000
   40  -0.3695224301389308E-005
   41  -0.4106494233073052E-005
   42  -0.9902798867885122E-005
   43   0.7770627718328158E-004
   44   0.2376780755495461E-005
   45   0.1017873635308972E-004
   46   0.0000000000000000E+000
   47   0.4550694963758517E-005
   48   0.2347403335577963E-004
   49   0.0000000000000000E+000
   50   0.1785456613833802E-004
   51   0.8780455350099897E-004
   52   0.0000000000000000E+000
   53   0.1859188970955419E-005
   54   0.1451943554465808E-003
   55   0.1623305498815653E-004
   56  -0.4084911265359280E-003
   57   0.8307132347760622E-004
   58  -0.1315820040065085E-003
   59   0.2622275468455960E-004
   60   0.5631477951876712E-004
   61  -0.5782409372844934E-004
   62   0.1478861983543042E-004
   63   0.2370574568235505E-003
   64   0.5815369761388646E-004
Sym= A'
Ene=   -1.4119
Spin= Alpha
Occup=  2.0000
    1  -0.6147135312515317E-001
    2  -0.1008882264535014E+000
    3   0.2697227785424857E+000
    4  -0.2447915192261774E-002
    5  -0.7526155328441771E-001
    6  -0.3672459984885057E-001
    7   0.0000000000000000E+000
    8  -0.9793489097471575E-001
    9  -0.4490602011846365E-001
   10   0.0000000000000000E+000
   11   0.5459475299853352E-001
   12   0.6824545392672371E-003
   13   0.0000000000000000E+000
   14  -0.1017177841141785E-001
   15  -0.1680771756150436E-001
   16   0.4313793765752236E-001
   17   0.3186811848016195E-001
   18  -0.4263269192516747E-002
   19  -0.1093740014535557E-001
   20   0.0000000000000000E+000
   21  -0.2526386477911887E-002
   22  -0.1684429275567785E-001
   23   0.0000000000000000E+000
   24  -0.1672968834850139E-001
   25  -0.2467387130170416E-001
   26   0.0000000000000000E+000
   27  -0.2081341567248635E-002
   28  -0.3454021714910735E-002
   29   0.1058197852733101E-001
   30   0.9458924000997777E-002
   31  -0.1799169431350249E-002
   32  -0.1862717539741221E-002
   33   0.0000000000000000E+000
   34  -0.2795736715718859E-002
   35  -0.1442038474900573E-002
   36   0.0000000000000000E+000
   37  -0.5031124473593341E-002
   38   0.2092010101841567E-001
   39   0.0000000000000000E+000
   40  -0.1042586586459248E+000
   41  -0.1745799603597070E+000
   42   0.4968719475908389E+000
   43   0.3928952784672300E+000
   44   0.5622750807705380E-001
   45   0.3037263218314215E-001
   46   0.0000000000000000E+000
   47   0.1077829202127509E+000
   48   0.5752524112499487E-001
   49   0.0000000000000000E+000
   50   0.4089416745183904E-001
   51   0.2670263673791901E-001
   52   0.0000000000000000E+000
   53   0.1838386418379402E-001
   54   0.5055688791985685E-002
   55  -0.8588584561533363E-002
   56   0.4565703981571625E-002
   57   0.3012800839795545E-002
   58   0.7916832956591353E-003
   59   0.1221300082298678E-002
   60  -0.7430320508147603E-002
   61  -0.6161199628451883E-002
   62   0.8184502947985094E-003
   63   0.7017122109174100E-002
   64   0.5639082245191155E-003
Sym= A'
Ene=   -1.0965
Spin= Alpha
Occup=  2.0000
    1   0.2889952249355538E-001
    2   0.4903177123083774E-001
    3  -0.1366227312794062E+000
    4  -0.6048353304914988E-001
    5  -0.3118173166472793E-001
    6  -0.4843359592092363E-001
    7   0.0000000000000000E+000
    8  -0.4811624394167675E-001
    9  -0.8129070466505245E-001
   10   0.0000000000000000E+000
   11  -0.1052495495492300E-001
   12  -0.1109791811669541E-001
   13   0.0000000000000000E+000
   14   0.8462017344661656E-001
   15   0.1419225090136586E+000
   16  -0.3761823008346574E+000
   17  -0.1883115454133256E+000
   18  -0.4354501594463305E-001
   19  -0.2876827783677045E-002
   20   0.0000000000000000E+000
   21  -0.6345164991497160E-001
   22   0.3667846954482672E-002
   23   0.0000000000000000E+000
   24  -0.1074704726723988E-001
   25  -0.3127523297278484E-002
   26   0.0000000000000000E+000
   27   0.7471117313523543E-001
   28   0.1252827243264669E+000
   29  -0.3315894123109364E+000
   30  -0.1598585384125588E+000
   31   0.4429323783750717E-001
   32   0.2449315881273653E-001
   33   0.0000000000000000E+000
   34   0.6501870741438574E-001
   35   0.3799800441853610E-001
   36   0.0000000000000000E+000
   37   0.1223813904365255E-002
   38   0.7229160231750091E-002
   39   0.0000000000000000E+000
   40  -0.2112172412251040E-001
   41  -0.3562601184526525E-001
   42   0.1040707273776547E+000
   43   0.8795651065217665E-001
   44   0.2579202622258195E-002
   45  -0.6181674632389078E-002
   46   0.0000000000000000E+000
   47   0.6447829272630975E-002
   48  -0.7616409863442471E-002
   49   0.0000000000000000E+000
   50  -0.1431262478415488E-002
   51  -0.3725290835319425E-002
   52   0.0000000000000000E+000
   53  -0.2200940985389926E-001
   54  -0.2585291733867919E-001
   55   0.4958871869138435E-002
   56  -0.4627617959320571E-001
   57  -0.4924710893438727E-001
   58   0.1240698620965440E-001
   59  -0.4191519971935649E-001
   60  -0.4575310059366847E-001
   61   0.6255585892040826E-002
   62  -0.4648689171567190E-001
   63  -0.4818748806181011E-001
   64   0.8811980501424047E-002
Sym= A'
Ene=   -0.8910
Spin= Alpha
Occup=  2.0000
    1   0.6450134691685330E-001
    2   0.1104761959356902E+000
    3  -0.3162839881890789E+000
    4  -0.1995476473672644E+000
    5  -0.4412108270566965E-001
    6  -0.5204293062578401E-001
    7   0.0000000000000000E+000
    8  -0.7043669202136377E-001
    9  -0.8947490882963931E-001
   10   0.0000000000000000E+000
   11  -0.3752113070403049E-001
   12  -0.2476303262599372E-001
   13   0.0000000000000000E+000
   14   0.2679570506757013E-001
   15   0.4562777368930750E-001
   16  -0.1252142358154202E+000
   17  -0.8556254093326671E-001
   18   0.5187436273017623E-001
   19   0.7920501738329817E-001