[Molden Format]
[Atoms] AU
O          1     8         0.0000000000         0.0000000000        -0.9137090376
C          2     6         0.0000000000         0.0000000000         1.2182780869
[GTO]
    1 0
 s  11 1.00
   0.8588500000000000E+04   0.1895150000000000E-02
   0.1297230000000000E+04   0.1438590000000000E-01
   0.2992960000000000E+03   0.7073200000000000E-01
   0.8737710000000000E+02   0.2400010000000000E+00
   0.2567890000000000E+02   0.5947970000000000E+00
   0.3740040000000000E+01   0.2808020000000000E+00
   0.4211750000000000E+02   0.0000000000000000E+00
   0.9628370000000000E+01   0.0000000000000000E+00
   0.2853320000000000E+01   0.0000000000000000E+00
   0.9056610000000000E+00   0.0000000000000000E+00
   0.2556110000000000E+00   0.0000000000000000E+00
 s  11 1.00
   0.8588500000000000E+04   0.0000000000000000E+00
   0.1297230000000000E+04   0.0000000000000000E+00
   0.2992960000000000E+03   0.0000000000000000E+00
   0.8737710000000000E+02   0.0000000000000000E+00
   0.2567890000000000E+02   0.0000000000000000E+00
   0.3740040000000000E+01   0.0000000000000000E+00
   0.4211750000000000E+02   0.1138890000000000E+00
   0.9628370000000000E+01   0.9208110000000000E+00
   0.2853320000000000E+01  -0.3274470000000000E-02
   0.9056610000000000E+00   0.0000000000000000E+00
   0.2556110000000000E+00   0.0000000000000000E+00
 s  11 1.00
   0.8588500000000000E+04   0.0000000000000000E+00
   0.1297230000000000E+04   0.0000000000000000E+00
   0.2992960000000000E+03   0.0000000000000000E+00
   0.8737710000000000E+02   0.0000000000000000E+00
   0.2567890000000000E+02   0.0000000000000000E+00
   0.3740040000000000E+01   0.0000000000000000E+00
   0.4211750000000000E+02   0.0000000000000000E+00
   0.9628370000000000E+01   0.0000000000000000E+00
   0.2853320000000000E+01   0.0000000000000000E+00
   0.9056610000000000E+00   0.1000000000000000E+01
   0.2556110000000000E+00   0.0000000000000000E+00
 s  11 1.00
   0.8588500000000000E+04   0.0000000000000000E+00
   0.1297230000000000E+04   0.0000000000000000E+00
   0.2992960000000000E+03   0.0000000000000000E+00
   0.8737710000000000E+02   0.0000000000000000E+00
   0.2567890000000000E+02   0.0000000000000000E+00
   0.3740040000000000E+01   0.0000000000000000E+00
   0.4211750000000000E+02   0.0000000000000000E+00
   0.9628370000000000E+01   0.0000000000000000E+00
   0.2853320000000000E+01   0.0000000000000000E+00
   0.9056610000000000E+00   0.0000000000000000E+00
   0.2556110000000000E+00   0.1000000000000000E+01
 p   5 1.00
   0.4211750000000000E+02   0.3651140000000000E-01
   0.9628370000000000E+01   0.2371530000000000E+00
   0.2853320000000000E+01   0.8197020000000000E+00
   0.9056610000000000E+00   0.0000000000000000E+00
   0.2556110000000000E+00   0.0000000000000000E+00
 p   5 1.00
   0.4211750000000000E+02   0.0000000000000000E+00
   0.9628370000000000E+01   0.0000000000000000E+00
   0.2853320000000000E+01   0.0000000000000000E+00
   0.9056610000000000E+00   0.1000000000000000E+01
   0.2556110000000000E+00   0.0000000000000000E+00
 p   5 1.00
   0.4211750000000000E+02   0.0000000000000000E+00
   0.9628370000000000E+01   0.0000000000000000E+00
   0.2853320000000000E+01   0.0000000000000000E+00
   0.9056610000000000E+00   0.0000000000000000E+00
   0.2556110000000000E+00   0.1000000000000000E+01

    2 0
 s  11 1.00
   0.4563240000000000E+04   0.1966650000000000E-02
   0.6820240000000000E+03   0.1523060000000000E-01
   0.1549730000000000E+03   0.7612690000000000E-01
   0.4445530000000000E+02   0.2608010000000000E+00
   0.1302900000000000E+02   0.6164620000000000E+00
   0.1827730000000000E+01   0.2210060000000000E+00
   0.2096420000000000E+02   0.0000000000000000E+00
   0.4803310000000000E+01   0.0000000000000000E+00
   0.1459330000000000E+01   0.0000000000000000E+00
   0.4834560000000000E+00   0.0000000000000000E+00
   0.1455850000000000E+00   0.0000000000000000E+00
 s  11 1.00
   0.4563240000000000E+04   0.0000000000000000E+00
   0.6820240000000000E+03   0.0000000000000000E+00
   0.1549730000000000E+03   0.0000000000000000E+00
   0.4445530000000000E+02   0.0000000000000000E+00
   0.1302900000000000E+02   0.0000000000000000E+00
   0.1827730000000000E+01   0.0000000000000000E+00
   0.2096420000000000E+02   0.1146600000000000E+00
   0.4803310000000000E+01   0.9199990000000000E+00
   0.1459330000000000E+01  -0.3030680000000000E-02
   0.4834560000000000E+00   0.0000000000000000E+00
   0.1455850000000000E+00   0.0000000000000000E+00
 s  11 1.00
   0.4563240000000000E+04   0.0000000000000000E+00
   0.6820240000000000E+03   0.0000000000000000E+00
   0.1549730000000000E+03   0.0000000000000000E+00
   0.4445530000000000E+02   0.0000000000000000E+00
   0.1302900000000000E+02   0.0000000000000000E+00
   0.1827730000000000E+01   0.0000000000000000E+00
   0.2096420000000000E+02   0.0000000000000000E+00
   0.4803310000000000E+01   0.0000000000000000E+00
   0.1459330000000000E+01   0.0000000000000000E+00
   0.4834560000000000E+00   0.1000000000000000E+01
   0.1455850000000000E+00   0.0000000000000000E+00
 s  11 1.00
   0.4563240000000000E+04   0.0000000000000000E+00
   0.6820240000000000E+03   0.0000000000000000E+00
   0.1549730000000000E+03   0.0000000000000000E+00
   0.4445530000000000E+02   0.0000000000000000E+00
   0.1302900000000000E+02   0.0000000000000000E+00
   0.1827730000000000E+01   0.0000000000000000E+00
   0.2096420000000000E+02   0.0000000000000000E+00
   0.4803310000000000E+01   0.0000000000000000E+00
   0.1459330000000000E+01   0.0000000000000000E+00
   0.4834560000000000E+00   0.0000000000000000E+00
   0.1455850000000000E+00   0.1000000000000000E+01
 p   5 1.00
   0.2096420000000000E+02   0.4024870000000000E-01
   0.4803310000000000E+01   0.2375940000000000E+00
   0.1459330000000000E+01   0.8158540000000000E+00
   0.4834560000000000E+00   0.0000000000000000E+00
   0.1455850000000000E+00   0.0000000000000000E+00
 p   5 1.00
   0.2096420000000000E+02   0.0000000000000000E+00
   0.4803310000000000E+01   0.0000000000000000E+00
   0.1459330000000000E+01   0.0000000000000000E+00
   0.4834560000000000E+00   0.1000000000000000E+01
   0.1455850000000000E+00   0.0000000000000000E+00
 p   5 1.00
   0.2096420000000000E+02   0.0000000000000000E+00
   0.4803310000000000E+01   0.0000000000000000E+00
   0.1459330000000000E+01   0.0000000000000000E+00
   0.4834560000000000E+00   0.0000000000000000E+00
   0.1455850000000000E+00   0.1000000000000000E+01

[SCFCONV]
scf-first  1  THROUGH   9
     -112.4906048156
     -112.6855063096
     -112.6984523398
     -112.6992722322
     -112.6994310511
     -112.6994431004
     -112.6994435427
     -112.6994435612
     -112.6994435618
[TITLE]
*** Dalton interface to Molden, wave function type : HF             5Jun25   21:
[5D7F]
[9G]
[MO]
Sym= A1
Ene=  -20.6837
Spin= Alpha
Occup=  2.0000
    1  -0.5514532562260127E+000
    2  -0.4716933799102774E+000
    3  -0.5536670733660580E-002
    4   0.9180756208524535E-003
    5   0.0000000000000000E+000
    6   0.0000000000000000E+000
    7  -0.2551855427239113E-002
    8   0.0000000000000000E+000
    9   0.0000000000000000E+000
   10   0.8098509233538111E-003
   11   0.0000000000000000E+000
   12   0.0000000000000000E+000
   13   0.8256033959412956E-004
   14  -0.2458399597939054E-004
   15   0.9143423875154999E-004
   16  -0.4675378522823654E-003
   17  -0.4015979750879817E-003
   18   0.0000000000000000E+000
   19   0.0000000000000000E+000
   20   0.2065009457413425E-003
   21   0.0000000000000000E+000
   22   0.0000000000000000E+000
   23   0.3461581329641411E-003
   24   0.0000000000000000E+000
   25   0.0000000000000000E+000
   26   0.2414577290504426E-003
Sym= A1
Ene=  -11.3921
Spin= Alpha
Occup=  2.0000
    1   0.3425567793352932E-003
    2   0.5305996324334642E-003
    3  -0.1411728822260426E-002
    4  -0.8686672645766102E-003
    5   0.0000000000000000E+000
    6   0.0000000000000000E+000
    7  -0.4489506828904823E-003
    8   0.0000000000000000E+000
    9   0.0000000000000000E+000
   10  -0.1365490047809354E-002
   11   0.0000000000000000E+000
   12   0.0000000000000000E+000
   13  -0.2648796465871029E-003
   14  -0.5634696332457033E+000
   15  -0.4669939974769631E+000
   16  -0.2459707779192660E-002
   17   0.7105264176350324E-003
   18   0.0000000000000000E+000
   19   0.0000000000000000E+000
   20   0.4486491182812882E-002
   21   0.0000000000000000E+000
   22   0.0000000000000000E+000
   23  -0.2198543405166441E-002
   24   0.0000000000000000E+000
   25   0.0000000000000000E+000
   26   0.2225998712107953E-003
Sym= A1
Ene=   -1.5641
Spin= Alpha
Occup=  2.0000
    1   0.1072232608404984E+000
    2   0.1801302204072268E+000
    3  -0.5207697466305252E+000
    4  -0.3489795252748608E+000
    5   0.0000000000000000E+000
    6   0.0000000000000000E+000
    7  -0.8099147323180493E-001
    8   0.0000000000000000E+000
    9   0.0000000000000000E+000
   10  -0.1494724912586763E+000
   11   0.0000000000000000E+000
   12   0.0000000000000000E+000
   13  -0.3594485496145682E-001
   14   0.6232114872868227E-001
   15   0.9907206961582628E-001
   16  -0.2601410067190040E+000
   17   0.1141252269504296E-001
   18   0.0000000000000000E+000
   19   0.0000000000000000E+000
   20   0.1091976430240588E+000
   21   0.0000000000000000E+000
   22   0.0000000000000000E+000
   23   0.1184295379284338E+000
   24   0.0000000000000000E+000
   25   0.0000000000000000E+000
   26  -0.3289629551497403E-001
Sym= A1
Ene=   -0.8001
Spin= Alpha
Occup=  2.0000
    1  -0.6132876195108590E-001
    2  -0.1036243298281384E+000
    3   0.3080351749459746E+000
    4   0.4103055876010175E+000
    5   0.0000000000000000E+000
    6   0.0000000000000000E+000
    7  -0.2243615039191554E+000
    8   0.0000000000000000E+000
    9   0.0000000000000000E+000
   10  -0.3347646081782076E+000
   11   0.0000000000000000E+000
   12   0.0000000000000000E+000
   13  -0.1924016981782584E+000
   14   0.7138765730095446E-001
   15   0.1221716034125035E+000
   16  -0.3815696545023685E+000
   17  -0.1518589370977458E+000
   18   0.0000000000000000E+000
   19   0.0000000000000000E+000
   20   0.5883534279705996E-001
   21   0.0000000000000000E+000
   22   0.0000000000000000E+000
   23   0.9351872187278691E-001
   24   0.0000000000000000E+000
   25   0.0000000000000000E+000
   26  -0.3064388908560352E-001
Sym= A1
Ene=   -0.5572
Spin= Alpha
Occup=  2.0000
    1   0.7036620211585887E-002
    2   0.1308425600457016E-001
    3  -0.4755211095526895E-001
    4  -0.5913214750308401E-001
    5   0.0000000000000000E+000
    6   0.0000000000000000E+000
    7  -0.1222885252751966E+000
    8   0.0000000000000000E+000
    9   0.0000000000000000E+000
   10  -0.2013753760346759E+000
   11   0.0000000000000000E+000
   12   0.0000000000000000E+000
   13  -0.1449557944926558E+000
   14  -0.7322360778548458E-001
   15  -0.1263678302730233E+000
   16   0.3473656509298712E+000
   17   0.6004768320660214E+000
   18   0.0000000000000000E+000
   19   0.0000000000000000E+000
   20   0.2102894601837087E+000
   21   0.0000000000000000E+000
   22   0.0000000000000000E+000
   23   0.2807464714121464E+000
   24   0.0000000000000000E+000
   25   0.0000000000000000E+000
   26   0.1103959139558757E+000
Sym= A1
Ene=    0.3479
Spin= Alpha
Occup=  0.0000
    1   0.4084203028950395E-001
    2   0.6770450773122391E-001
    3  -0.1282389382748518E+000
    4  -0.2037158020424520E+001
    5   0.0000000000000000E+000
    6   0.0000000000000000E+000
    7  -0.3086843547412977E-001
    8   0.0000000000000000E+000
    9   0.0000000000000000E+000
   10  -0.4019358462881269E-001
   11   0.0000000000000000E+000
   12   0.0000000000000000E+000
   13  -0.6189640798270961E+000
   14   0.8628232498789572E-003
   15   0.4941433610119385E-002
   16  -0.1290584381952082E+000
   17   0.1898525963023680E+001
   18   0.0000000000000000E+000
   19   0.0000000000000000E+000
   20  -0.2905167500181643E-001
   21   0.0000000000000000E+000
   22   0.0000000000000000E+000
   23  -0.1045305725482147E+000
   24   0.0000000000000000E+000
   25   0.0000000000000000E+000
   26  -0.1804199100446825E+001
Sym= A1
Ene=    0.5958
Spin= Alpha
Occup=  0.0000
    1  -0.5696695869533049E-002
    2  -0.1013396200411713E-001
    3   0.1865756469099703E-001
    4   0.4941184524551749E+000
    5   0.0000000000000000E+000
    6   0.0000000000000000E+000
    7  -0.3333183365415746E-001
    8   0.0000000000000000E+000
    9   0.0000000000000000E+000
   10  -0.5832409933079771E-001
   11   0.0000000000000000E+000
   12   0.0000000000000000E+000
   13   0.4448065968128280E+000
   14  -0.8958398911265618E-001
   15  -0.1879921756651204E+000
   16   0.1136329088159454E+001
   17  -0.1613515407999871E+001
   18   0.0000000000000000E+000
   19   0.0000000000000000E+000
   20   0.1094423174951627E+000
   21   0.0000000000000000E+000
   22   0.0000000000000000E+000
   23   0.6799245764900972E+000
   24   0.0000000000000000E+000
   25   0.0000000000000000E+000
   26  -0.4883460410734634E+000
Sym= A1
Ene=    0.8681
Spin= Alpha
Occup=  0.0000
    1  -0.3899922817048635E-001
    2  -0.6932165862228123E-001
    3   0.2010108878103010E+000
    4   0.9636764202066382E+000
    5   0.0000000000000000E+000
    6   0.0000000000000000E+000
    7  -0.2141787253252425E-001
    8   0.0000000000000000E+000
    9   0.0000000000000000E+000
   10  -0.2633633589879550E+000
   11   0.0000000000000000E+000
   12   0.0000000000000000E+000
   13   0.1799136448591666E+001
   14   0.6828210936056062E-001
   15   0.1590493217386016E+000
   16  -0.1415180739478047E+001
   17  -0.3510165327519887E+000
   18   0.0000000000000000E+000
   19   0.0000000000000000E+000
   20   0.1496133089157511E+000
   21   0.0000000000000000E+000
   22   0.0000000000000000E+000
   23   0.7448664057973385E+000
   24   0.0000000000000000E+000
   25   0.0000000000000000E+000
   26  -0.2736517597519096E-001
Sym= A1
Ene=    1.0723
Spin= Alpha
Occup=  0.0000
    1   0.1111160989799995E-001
    2   0.2080437176070038E-001
    3  -0.3909105888196760E-001
    4  -0.5091422761553661E+000
    5   0.0000000000000000E+000
    6   0.0000000000000000E+000
    7  -0.2789807894980262E+000
    8   0.0000000000000000E+000
    9   0.0000000000000000E+000
   10  -0.8857975095422842E+000
   11   0.0000000000000000E+000
   12   0.0000000000000000E+000
   13   0.3496167286399685E+000
   14  -0.5942340678709854E-001
   15  -0.1340572426253760E+000
   16   0.6328955364908379E+000
   17  -0.9961427402884343E-001
   18   0.0000000000000000E+000
   19   0.0000000000000000E+000
   20  -0.2317367456608429E+000
   21   0.0000000000000000E+000
   22   0.0000000000000000E+000
   23  -0.8591796337079368E+000
   24   0.0000000000000000E+000
   25   0.0000000000000000E+000
   26   0.2648439237327586E+000
Sym= A1
Ene=    1.5831
Spin= Alpha
Occup=  0.0000
    1   0.1170930011947300E+000
    2   0.2515515999141418E+000
    3  -0.2008244722186562E+001
    4   0.4314436920186817E+001
    5   0.0000000000000000E+000
    6   0.0000000000000000E+000
    7  -0.4601711748513707E-001
    8   0.0000000000000000E+000
    9   0.0000000000000000E+000
   10  -0.1086874475460914E+000
   11   0.0000000000000000E+000
   12   0.0000000000000000E+000
   13   0.1398782375592347E+001
   14  -0.2947165524378060E-002
   15   0.1256144459710143E-001
   16  -0.5036273880665580E+000
   17  -0.2212535002925742E+001
   18   0.0000000000000000E+000
   19   0.0000000000000000E+000
   20  -0.8020677223131616E-001
   21   0.0000000000000000E+000
   22   0.0000000000000000E+000
   23   0.3781045588716173E+000
   24   0.0000000000000000E+000
   25   0.0000000000000000E+000
   26   0.1369192946827769E+001
Sym= A1
Ene=    3.0020
Spin= Alpha
Occup=  0.0000
    1  -0.6028813571275131E-002
    2  -0.2449689972841145E-001
    3   0.2690525970758144E+000
    4   0.4625534641642088E+000
    5   0.0000000000000000E+000
    6   0.0000000000000000E+000
    7  -0.1485600241655310E+000
    8   0.0000000000000000E+000
    9   0.0000000000000000E+000
   10   0.3667568420510458E+000
   11   0.0000000000000000E+000
   12   0.0000000000000000E+000
   13   0.4429957188545284E+000
   14   0.1876892156749291E-001
   15   0.5247118305697651E-001
   16  -0.4195730342152652E+000
   17  -0.3142907812654431E+000
   18   0.0000000000000000E+000
   19   0.0000000000000000E+000
   20  -0.1331475738832907E+001
   21   0.0000000000000000E+000
   22   0.0000000000000000E+000
   23   0.1918824354201625E+001
   24   0.0000000000000000E+000
   25   0.0000000000000000E+000
   26  -0.5050682388147378E+000
Sym= A1
Ene=    5.4180
Spin= Alpha
Occup=  0.0000
    1  -0.7838903740477052E-002
    2  -0.1673151115211809E-001
    3   0.1237049545464699E+000
    4  -0.2198847151449882E+000
    5   0.0000000000000000E+000
    6   0.0000000000000000E+000
    7  -0.1283783172303892E+001
    8   0.0000000000000000E+000
    9   0.0000000000000000E+000
   10   0.1499202567905162E+001
   11   0.0000000000000000E+000
   12   0.0000000000000000E+000
   13  -0.6159941998656803E+000
   14   0.2580779954104610E-002
   15   0.4064932282756248E-001
   16  -0.1494007271516968E+000
   17   0.2921267251706537E+000
   18   0.0000000000000000E+000
   19   0.0000000000000000E+000
   20   0.2583857897125013E+000
   21   0.0000000000000000E+000
   22   0.0000000000000000E+000
   23   0.4396840316555937E-001
   24   0.0000000000000000E+000
   25   0.0000000000000000E+000
   26  -0.8877106280505409E-001
Sym= A1
Ene=   24.3346
Spin= Alpha
Occup=  0.0000
    1   0.1074933250248116E-001
    2  -0.1053318794493357E-002
    3  -0.2459149402175721E-001
    4  -0.1222665915130433E+000
    5   0.0000000000000000E+000
    6   0.0000000000000000E+000
    7   0.1675900221963166E-001
    8   0.0000000000000000E+000
    9   0.0000000000000000E+000
   10  -0.8479008101950831E-001
   11   0.0000000000000000E+000
   12   0.0000000000000000E+000
   13  -0.1024757768088791E+000
   14   0.2026903627286113E+001
   15  -0.2168700657262576E+001
   16   0.4330629348939253E+000
   17  -0.1063358792128695E+000
   18   0.0000000000000000E+000
   19   0.0000000000000000E+000
   20   0.2745129310314364E-001
   21   0.0000000000000000E+000
   22   0.0000000000000000E+000
   23  -0.1340167493832297E+000
   24   0.0000000000000000E+000
   25   0.0000000000000000E+000
   26  -0.7958425459672407E-005
Sym= A1
Ene=   51.3881
Spin= Alpha
Occup=  0.0000
    1  -0.2246975885948803E+001
    2   0.2334660061400570E+001
    3  -0.2826112874348161E+000
    4   0.3720883211071779E+000
    5   0.0000000000000000E+000
    6   0.0000000000000000E+000
    7   0.8627995917948666E-002
    8   0.0000000000000000E+000
    9   0.0000000000000000E+000
   10  -0.3040300590445351E-001
   11   0.0000000000000000E+000
   12   0.0000000000000000E+000
   13   0.9852700894636982E-001
   14   0.1265049959456114E-001
   15  -0.1984326072342313E-001
   16  -0.8713304992963421E-002
   17  -0.1813042819724238E+000
   18   0.0000000000000000E+000
   19   0.0000000000000000E+000
   20   0.2239886627073072E-002
   21   0.0000000000000000E+000
   22   0.0000000000000000E+000
   23  -0.1166716457067339E-001
   24   0.0000000000000000E+000
   25   0.0000000000000000E+000
   26   0.1234258188124617E+000
Sym= B1
Ene=   -0.6463
Spin= Alpha
Occup=  2.0000
    1   0.0000000000000000E+000
    2   0.0000000000000000E+000
    3   0.0000000000000000E+000
    4   0.0000000000000000E+000
    5   0.2483184493459442E+000
    6   0.0000000000000000E+000
    7   0.0000000000000000E+000
    8   0.3976395091860116E+000
    9   0.0000000000000000E+000
   10   0.0000000000000000E+000
   11   0.3492257945311275E+000
   12   0.0000000000000000E+000
   13   0.0000000000000000E+000
   14   0.0000000000000000E+000
   15   0.0000000000000000E+000
   16   0.0000000000000000E+000
   17   0.0000000000000000E+000
   18   0.1286933451531462E+000
   19   0.0000000000000000E+000
   20   0.0000000000000000E+000
   21   0.2180341272585616E+000
   22   0.0000000000000000E+000
   23   0.0000000000000000E+000
   24   0.9888938337967738E-001
   25   0.0000000000000000E+000
   26   0.0000000000000000E+000
Sym= B1
Ene=    0.1310
Spin= Alpha
Occup=  0.0000
    1   0.0000000000000000E+000
    2   0.0000000000000000E+000
    3   0.0000000000000000E+000
    4   0.0000000000000000E+000
    5  -0.1684574836045658E+000
    6   0.0000000000000000E+000
    7   0.0000000000000000E+000
    8  -0.2382402057402852E+000
    9   0.0000000000000000E+000
   10   0.0000000000000000E+000
   11  -0.5029713325833448E+000
   12   0.0000000000000000E+000
   13   0.0000000000000000E+000
   14   0.0000000000000000E+000
   15   0.0000000000000000E+000
   16   0.0000000000000000E+000
   17   0.0000000000000000E+000
   18   0.2026000506467014E+000
   19   0.0000000000000000E+000
   20   0.0000000000000000E+000
   21   0.3123556017069005E+000
   22   0.0000000000000000E+000
   23   0.0000000000000000E+000
   24   0.7664692783465228E+000
   25   0.0000000000000000E+000
   26   0.0000000000000000E+000
Sym= B1
Ene=    0.5631
Spin= Alpha
Occup=  0.0000
    1   0.0000000000000000E+000
    2   0.0000000000000000E+000
    3   0.0000000000000000E+000
    4   0.0000000000000000E+000
    5   0.5393996182454120E-002
    6   0.0000000000000000E+000
    7   0.0000000000000000E+000
    8  -0.1452854270669514E-001
    9   0.0000000000000000E+000
   10   0.0000000000000000E+000
   11   0.5344217576339570E-002
   12   0.0000000000000000E+000
   13   0.0000000000000000E+000
   14   0.0000000000000000E+000
   15   0.0000000000000000E+000
   16   0.0000000000000000E+000
   17   0.0000000000000000E+000
   18  -0.2274500293996937E+000
   19   0.0000000000000000E+000
   20   0.0000000000000000E+000
   21  -0.9504213371681931E+000
   22   0.0000000000000000E+000
   23   0.0000000000000000E+000
   24   0.1141981783086286E+001
   25   0.0000000000000000E+000
   26   0.0000000000000000E+000
Sym= B1
Ene=    1.0444
Spin= Alpha
Occup=  0.0000
    1   0.0000000000000000E+000
    2   0.0000000000000000E+000
    3   0.0000000000000000E+000
    4   0.0000000000000000E+000
    5  -0.2373405772111425E+000
    6   0.0000000000000000E+000
    7   0.0000000000000000E+000
    8  -0.8517386525830292E+000
    9   0.0000000000000000E+000
   10   0.0000000000000000E+000
   11   0.1415000349330915E+001
   12   0.0000000000000000E+000
   13   0.0000000000000000E+000
   14   0.0000000000000000E+000
   15   0.0000000000000000E+000
   16   0.0000000000000000E+000
   17   0.0000000000000000E+000
   18   0.6852530419802606E-001
   19   0.0000000000000000E+000
   20   0.0000000000000000E+000
   21   0.3444113077913937E-001
   22   0.0000000000000000E+000
   23   0.0000000000000000E+000
   24  -0.5862406003734898E+000
   25   0.0000000000000000E+000
   26   0.0000000000000000E+000
Sym= B1
Ene=    2.9064
Spin= Alpha
Occup=  0.0000
    1   0.0000000000000000E+000
    2   0.0000000000000000E+000
    3   0.0000000000000000E+000
    4   0.0000000000000000E+000
    5   0.4083776187982067E-001
    6   0.0000000000000000E+000
    7   0.0000000000000000E+000
    8   0.8409267623600822E-001
    9   0.0000000000000000E+000
   10   0.0000000000000000E+000
   11  -0.4944536178460346E-001
   12   0.0000000000000000E+000
   13   0.0000000000000000E+000
   14   0.0000000000000000E+000
   15   0.0000000000000000E+000
   16   0.0000000000000000E+000
   17   0.0000000000000000E+000
   18   0.1319342779828869E+001
   19   0.0000000000000000E+000
   20   0.0000000000000000E+000
   21  -0.1430206387782359E+001
   22   0.0000000000000000E+000
   23   0.0000000000000000E+000
   24   0.5715811386979199E+000
   25   0.0000000000000000E+000
   26   0.0000000000000000E+000
Sym= B1
Ene=    5.2672
Spin= Alpha
Occup=  0.0000
    1   0.0000000000000000E+000
    2   0.0000000000000000E+000
    3   0.0000000000000000E+000
    4   0.0000000000000000E+000
    5   0.1276814424165493E+001
    6   0.0000000000000000E+000
    7   0.0000000000000000E+000
    8  -0.1425179910425605E+001
    9   0.0000000000000000E+000
   10   0.0000000000000000E+000
   11   0.6542086096882612E+000
   12   0.0000000000000000E+000
   13   0.0000000000000000E+000
   14   0.0000000000000000E+000
   15   0.0000000000000000E+000
   16   0.0000000000000000E+000
   17   0.0000000000000000E+000
   18  -0.5001400571466346E-001
   19   0.0000000000000000E+000
   20   0.0000000000000000E+000
   21   0.1380926910349616E+000
   22   0.0000000000000000E+000
   23   0.0000000000000000E+000
   24  -0.2306741954700924E+000
   25   0.0000000000000000E+000
   26   0.0000000000000000E+000
Sym= B2
Ene=   -0.6463
Spin= Alpha
Occup=  2.0000
    1   0.0000000000000000E+000
    2   0.0000000000000000E+000
    3   0.0000000000000000E+000
    4   0.0000000000000000E+000
    5   0.0000000000000000E+000
    6   0.2483184493459451E+000
    7   0.0000000000000000E+000
    8   0.0000000000000000E+000
    9   0.3976395091860104E+000
   10   0.0000000000000000E+000
   11   0.0000000000000000E+000
   12   0.3492257945311296E+000
   13   0.0000000000000000E+000
   14   0.0000000000000000E+000
   15   0.0000000000000000E+000
   16   0.0000000000000000E+000
   17   0.0000000000000000E+000
   18   0.0000000000000000E+000
   19   0.1286933451531459E+000
   20   0.0000000000000000E+000
   21   0.0000000000000000E+000
   22   0.2180341272585603E+000
   23   0.0000000000000000E+000
   24   0.0000000000000000E+000
   25   0.9888938337967680E-001
   26   0.0000000000000000E+000
Sym= B2
Ene=    0.1310
Spin= Alpha
Occup=  0.0000
    1   0.0000000000000000E+000
    2   0.0000000000000000E+000
    3   0.0000000000000000E+000
    4   0.0000000000000000E+000
    5   0.0000000000000000E+000
    6  -0.1684574836045657E+000
    7   0.0000000000000000E+000
    8   0.0000000000000000E+000
    9  -0.2382402057402837E+000
   10   0.0000000000000000E+000
   11   0.0000000000000000E+000
   12  -0.5029713325833454E+000
   13   0.0000000000000000E+000
   14   0.0000000000000000E+000
   15   0.0000000000000000E+000
   16   0.0000000000000000E+000
   17   0.0000000000000000E+000
   18   0.0000000000000000E+000
   19   0.2026000506467017E+000
   20   0.0000000000000000E+000
   21   0.0000000000000000E+000
   22   0.3123556017068972E+000
   23   0.0000000000000000E+000
   24   0.0000000000000000E+000
   25   0.7664692783465270E+000
   26   0.0000000000000000E+000
Sym= B2
Ene=    0.5631
Spin= Alpha
Occup=  0.0000
    1   0.0000000000000000E+000
    2   0.0000000000000000E+000
    3   0.0000000000000000E+000
    4   0.0000000000000000E+000
    5   0.0000000000000000E+000
    6   0.5393996182455414E-002
    7   0.0000000000000000E+000
    8   0.0000000000000000E+000
    9  -0.1452854270668611E-001
   10   0.0000000000000000E+000
   11   0.0000000000000000E+000
   12   0.5344217576328022E-002
   13   0.0000000000000000E+000
   14   0.0000000000000000E+000
   15   0.0000000000000000E+000
   16   0.0000000000000000E+000
   17   0.0000000000000000E+000
   18   0.0000000000000000E+000
   19  -0.2274500293996912E+000
   20   0.0000000000000000E+000
   21   0.0000000000000000E+000
   22  -0.9504213371681982E+000
   23   0.0000000000000000E+000
   24   0.0000000000000000E+000
   25   0.1141981783086290E+001
   26   0.0000000000000000E+000
Sym= B2
Ene=    1.0444
Spin= Alpha
Occup=  0.0000
    1   0.0000000000000000E+000
    2   0.0000000000000000E+000
    3   0.0000000000000000E+000
    4   0.0000000000000000E+000
    5   0.0000000000000000E+000
    6  -0.2373405772111454E+000
    7   0.0000000000000000E+000
    8   0.0000000000000000E+000
    9  -0.8517386525830272E+000
   10   0.0000000000000000E+000
   11   0.0000000000000000E+000
   12   0.1415000349330913E+001
   13   0.0000000000000000E+000
   14   0.0000000000000000E+000
   15   0.0000000000000000E+000
   16   0.0000000000000000E+000
   17   0.0000000000000000E+000
   18   0.0000000000000000E+000
   19   0.6852530419802140E-001
   20   0.0000000000000000E+000
   21   0.0000000000000000E+000
   22   0.3444113077913388E-001
   23   0.0000000000000000E+000
   24   0.0000000000000000E+000
   25  -0.5862406003734799E+000
   26   0.0000000000000000E+000
Sym= B2
Ene=    2.9064
Spin= Alpha
Occup=  0.0000
    1   0.0000000000000000E+000
    2   0.0000000000000000E+000
    3   0.0000000000000000E+000
    4   0.0000000000000000E+000
    5   0.0000000000000000E+000
    6   0.4083776187981775E-001
    7   0.0000000000000000E+000
    8   0.0000000000000000E+000
    9   0.8409267623600915E-001
   10   0.0000000000000000E+000
   11   0.0000000000000000E+000
   12  -0.4944536178460125E-001
   13   0.0000000000000000E+000
   14   0.0000000000000000E+000
   15   0.0000000000000000E+000
   16   0.0000000000000000E+000
   17   0.0000000000000000E+000
   18   0.0000000000000000E+000
   19   0.1319342779828869E+001
   20   0.0000000000000000E+000
   21   0.0000000000000000E+000
   22  -0.1430206387782356E+001
   23   0.0000000000000000E+000
   24   0.0000000000000000E+000
   25   0.5715811386979149E+000
   26   0.0000000000000000E+000
Sym= B2
Ene=    5.2672
Spin= Alpha
Occup=  0.0000
    1   0.0000000000000000E+000
    2   0.0000000000000000E+000
    3   0.0000000000000000E+000
    4   0.0000000000000000E+000
    5   0.0000000000000000E+000
    6   0.1276814424165492E+001
    7   0.0000000000000000E+000
    8   0.0000000000000000E+000
    9  -0.1425179910425607E+001
   10   0.0000000000000000E+000
   11   0.0000000000000000E+000
   12   0.6542086096882632E+000
   13   0.0000000000000000E+000
   14   0.0000000000000000E+000
   15   0.0000000000000000E+000
   16   0.0000000000000000E+000
   17   0.0000000000000000E+000
   18   0.0000000000000000E+000
   19  -0.5001400571466087E-001
   20   0.0000000000000000E+000
   21   0.0000000000000000E+000
   22   0.1380926910349579E+000
   23   0.0000000000000000E+000
   24   0.0000000000000000E+000
   25  -0.2306741954700910E+000
   26   0.0000000000000000E+000
[End of Molden output from Dalton]
