[Molden Format]
[Atoms] AU
O_1        1     8         0.0000000000         0.0000000000         1.1409221480
O_2        2     8         0.0000000000         0.0000000000        -1.1409221480
[GTO]
    1 0
 s  11 1.00
   0.8588500000000000E+04   0.1895150000000000E-02
   0.1297230000000000E+04   0.1438590000000000E-01
   0.2992960000000000E+03   0.7073200000000000E-01
   0.8737710000000000E+02   0.2400010000000000E+00
   0.2567890000000000E+02   0.5947970000000000E+00
   0.3740040000000000E+01   0.2808020000000000E+00
   0.4211750000000000E+02   0.0000000000000000E+00
   0.9628370000000000E+01   0.0000000000000000E+00
   0.2853320000000000E+01   0.0000000000000000E+00
   0.9056610000000000E+00   0.0000000000000000E+00
   0.2556110000000000E+00   0.0000000000000000E+00
 s  11 1.00
   0.8588500000000000E+04   0.0000000000000000E+00
   0.1297230000000000E+04   0.0000000000000000E+00
   0.2992960000000000E+03   0.0000000000000000E+00
   0.8737710000000000E+02   0.0000000000000000E+00
   0.2567890000000000E+02   0.0000000000000000E+00
   0.3740040000000000E+01   0.0000000000000000E+00
   0.4211750000000000E+02   0.1138890000000000E+00
   0.9628370000000000E+01   0.9208110000000000E+00
   0.2853320000000000E+01  -0.3274470000000000E-02
   0.9056610000000000E+00   0.0000000000000000E+00
   0.2556110000000000E+00   0.0000000000000000E+00
 s  11 1.00
   0.8588500000000000E+04   0.0000000000000000E+00
   0.1297230000000000E+04   0.0000000000000000E+00
   0.2992960000000000E+03   0.0000000000000000E+00
   0.8737710000000000E+02   0.0000000000000000E+00
   0.2567890000000000E+02   0.0000000000000000E+00
   0.3740040000000000E+01   0.0000000000000000E+00
   0.4211750000000000E+02   0.0000000000000000E+00
   0.9628370000000000E+01   0.0000000000000000E+00
   0.2853320000000000E+01   0.0000000000000000E+00
   0.9056610000000000E+00   0.1000000000000000E+01
   0.2556110000000000E+00   0.0000000000000000E+00
 s  11 1.00
   0.8588500000000000E+04   0.0000000000000000E+00
   0.1297230000000000E+04   0.0000000000000000E+00
   0.2992960000000000E+03   0.0000000000000000E+00
   0.8737710000000000E+02   0.0000000000000000E+00
   0.2567890000000000E+02   0.0000000000000000E+00
   0.3740040000000000E+01   0.0000000000000000E+00
   0.4211750000000000E+02   0.0000000000000000E+00
   0.9628370000000000E+01   0.0000000000000000E+00
   0.2853320000000000E+01   0.0000000000000000E+00
   0.9056610000000000E+00   0.0000000000000000E+00
   0.2556110000000000E+00   0.1000000000000000E+01
 p   5 1.00
   0.4211750000000000E+02   0.3651140000000000E-01
   0.9628370000000000E+01   0.2371530000000000E+00
   0.2853320000000000E+01   0.8197020000000000E+00
   0.9056610000000000E+00   0.0000000000000000E+00
   0.2556110000000000E+00   0.0000000000000000E+00
 p   5 1.00
   0.4211750000000000E+02   0.0000000000000000E+00
   0.9628370000000000E+01   0.0000000000000000E+00
   0.2853320000000000E+01   0.0000000000000000E+00
   0.9056610000000000E+00   0.1000000000000000E+01
   0.2556110000000000E+00   0.0000000000000000E+00
 p   5 1.00
   0.4211750000000000E+02   0.0000000000000000E+00
   0.9628370000000000E+01   0.0000000000000000E+00
   0.2853320000000000E+01   0.0000000000000000E+00
   0.9056610000000000E+00   0.0000000000000000E+00
   0.2556110000000000E+00   0.1000000000000000E+01

    2 0
 s  11 1.00
   0.8588500000000000E+04   0.1895150000000000E-02
   0.1297230000000000E+04   0.1438590000000000E-01
   0.2992960000000000E+03   0.7073200000000000E-01
   0.8737710000000000E+02   0.2400010000000000E+00
   0.2567890000000000E+02   0.5947970000000000E+00
   0.3740040000000000E+01   0.2808020000000000E+00
   0.4211750000000000E+02   0.0000000000000000E+00
   0.9628370000000000E+01   0.0000000000000000E+00
   0.2853320000000000E+01   0.0000000000000000E+00
   0.9056610000000000E+00   0.0000000000000000E+00
   0.2556110000000000E+00   0.0000000000000000E+00
 s  11 1.00
   0.8588500000000000E+04   0.0000000000000000E+00
   0.1297230000000000E+04   0.0000000000000000E+00
   0.2992960000000000E+03   0.0000000000000000E+00
   0.8737710000000000E+02   0.0000000000000000E+00
   0.2567890000000000E+02   0.0000000000000000E+00
   0.3740040000000000E+01   0.0000000000000000E+00
   0.4211750000000000E+02   0.1138890000000000E+00
   0.9628370000000000E+01   0.9208110000000000E+00
   0.2853320000000000E+01  -0.3274470000000000E-02
   0.9056610000000000E+00   0.0000000000000000E+00
   0.2556110000000000E+00   0.0000000000000000E+00
 s  11 1.00
   0.8588500000000000E+04   0.0000000000000000E+00
   0.1297230000000000E+04   0.0000000000000000E+00
   0.2992960000000000E+03   0.0000000000000000E+00
   0.8737710000000000E+02   0.0000000000000000E+00
   0.2567890000000000E+02   0.0000000000000000E+00
   0.3740040000000000E+01   0.0000000000000000E+00
   0.4211750000000000E+02   0.0000000000000000E+00
   0.9628370000000000E+01   0.0000000000000000E+00
   0.2853320000000000E+01   0.0000000000000000E+00
   0.9056610000000000E+00   0.1000000000000000E+01
   0.2556110000000000E+00   0.0000000000000000E+00
 s  11 1.00
   0.8588500000000000E+04   0.0000000000000000E+00
   0.1297230000000000E+04   0.0000000000000000E+00
   0.2992960000000000E+03   0.0000000000000000E+00
   0.8737710000000000E+02   0.0000000000000000E+00
   0.2567890000000000E+02   0.0000000000000000E+00
   0.3740040000000000E+01   0.0000000000000000E+00
   0.4211750000000000E+02   0.0000000000000000E+00
   0.9628370000000000E+01   0.0000000000000000E+00
   0.2853320000000000E+01   0.0000000000000000E+00
   0.9056610000000000E+00   0.0000000000000000E+00
   0.2556110000000000E+00   0.1000000000000000E+01
 p   5 1.00
   0.4211750000000000E+02   0.3651140000000000E-01
   0.9628370000000000E+01   0.2371530000000000E+00
   0.2853320000000000E+01   0.8197020000000000E+00
   0.9056610000000000E+00   0.0000000000000000E+00
   0.2556110000000000E+00   0.0000000000000000E+00
 p   5 1.00
   0.4211750000000000E+02   0.0000000000000000E+00
   0.9628370000000000E+01   0.0000000000000000E+00
   0.2853320000000000E+01   0.0000000000000000E+00
   0.9056610000000000E+00   0.1000000000000000E+01
   0.2556110000000000E+00   0.0000000000000000E+00
 p   5 1.00
   0.4211750000000000E+02   0.0000000000000000E+00
   0.9628370000000000E+01   0.0000000000000000E+00
   0.2853320000000000E+01   0.0000000000000000E+00
   0.9056610000000000E+00   0.0000000000000000E+00
   0.2556110000000000E+00   0.1000000000000000E+01

[SCFCONV]
scf-first  1  THROUGH   8
     -149.4079468807
     -149.5668122285
     -149.5774787768
     -149.5781571436
     -149.5782084120
     -149.5782086573
     -149.5782086656
     -149.5782086656
[TITLE]
*** Dalton interface to Molden, wave function type : HF             5Jun25   23:
[5D7F]
[9G]
[MO]
Sym= Ag
Ene=  -20.7419
Spin= Alpha
Occup=  2.0000
    1   0.3899817221450509E+000
    2   0.3335437426119081E+000
    3   0.3650471702918987E-002
    4  -0.1118072998596627E-003
    5   0.0000000000000000E+000
    6   0.0000000000000000E+000
    7  -0.1934754776478034E-002
    8   0.0000000000000000E+000
    9   0.0000000000000000E+000
   10   0.4878408356514946E-003
   11   0.0000000000000000E+000
   12   0.0000000000000000E+000
   13  -0.2120472101211093E-003
   14   0.3899817221450509E+000
   15   0.3335437426119081E+000
   16   0.3650471702918987E-002
   17  -0.1118072998596627E-003
   18   0.0000000000000000E+000
   19   0.0000000000000000E+000
   20   0.1934754776478034E-002
   21   0.0000000000000000E+000
   22   0.0000000000000000E+000
   23  -0.4878408356514946E-003
   24   0.0000000000000000E+000
   25   0.0000000000000000E+000
   26   0.2120472101211093E-003
Sym= Ag
Ene=   -1.6857
Spin= Alpha
Occup=  2.0000
    1  -0.8350910995578807E-001
    2  -0.1406224057052314E+000
    3   0.4212092771607453E+000
    4   0.2101039536574465E+000
    5   0.0000000000000000E+000
    6   0.0000000000000000E+000
    7  -0.6766029180269086E-001
    8   0.0000000000000000E+000
    9   0.0000000000000000E+000
   10  -0.1361801131109457E+000
   11   0.0000000000000000E+000
   12   0.0000000000000000E+000
   13  -0.2199437652693080E-001
   14  -0.8350910995578807E-001
   15  -0.1406224057052314E+000
   16   0.4212092771607453E+000
   17   0.2101039536574465E+000
   18   0.0000000000000000E+000
   19   0.0000000000000000E+000
   20   0.6766029180269086E-001
   21   0.0000000000000000E+000
   22   0.0000000000000000E+000
   23   0.1361801131109457E+000
   24   0.0000000000000000E+000
   25   0.0000000000000000E+000
   26   0.2199437652693080E-001
Sym= Ag
Ene=   -0.7242
Spin= Alpha
Occup=  2.0000
    1  -0.2867266879476676E-001
    2  -0.4736695233155861E-001
    3   0.1266107787279566E+000
    4   0.2457731717624853E+000
    5   0.0000000000000000E+000
    6   0.0000000000000000E+000
    7   0.2030400489788878E+000
    8   0.0000000000000000E+000
    9   0.0000000000000000E+000
   10   0.3430170619314209E+000
   11   0.0000000000000000E+000
   12   0.0000000000000000E+000
   13   0.1963581055697529E+000
   14  -0.2867266879476676E-001
   15  -0.4736695233155861E-001
   16   0.1266107787279566E+000
   17   0.2457731717624853E+000
   18   0.0000000000000000E+000
   19   0.0000000000000000E+000
   20  -0.2030400489788878E+000
   21   0.0000000000000000E+000
   22   0.0000000000000000E+000
   23  -0.3430170619314209E+000
   24   0.0000000000000000E+000
   25   0.0000000000000000E+000
   26  -0.1963581055697529E+000
Sym= Ag
Ene=    0.9436
Spin= Alpha
Occup=  0.0000
    1   0.1778816346760830E-001
    2   0.3055368206257338E-001
    3  -0.9328191434954825E-001
    4   0.3482751655044379E+000
    5   0.0000000000000000E+000
    6   0.0000000000000000E+000
    7  -0.1089574962695857E+000
    8   0.0000000000000000E+000
    9   0.0000000000000000E+000
   10  -0.5604928488964024E+000
   11   0.0000000000000000E+000
   12   0.0000000000000000E+000
   13   0.9477475138983706E+000
   14   0.1778816346760830E-001
   15   0.3055368206257338E-001
   16  -0.9328191434954825E-001
   17   0.3482751655044379E+000
   18   0.0000000000000000E+000
   19   0.0000000000000000E+000
   20   0.1089574962695857E+000
   21   0.0000000000000000E+000
   22   0.0000000000000000E+000
   23   0.5604928488964024E+000
   24   0.0000000000000000E+000
   25   0.0000000000000000E+000
   26  -0.9477475138983706E+000
Sym= Ag
Ene=    1.0427
Spin= Alpha
Occup=  0.0000
    1  -0.7937493722734458E-001
    2  -0.1668501166591453E+000
    3   0.1139541331810701E+001
    4  -0.8664018495157583E+000
    5   0.0000000000000000E+000
    6   0.0000000000000000E+000
    7   0.2283608835288281E-001
    8   0.0000000000000000E+000
    9   0.0000000000000000E+000
   10  -0.1136390412857595E+000
   11   0.0000000000000000E+000
   12   0.0000000000000000E+000
   13   0.2227216970590294E+000
   14  -0.7937493722734458E-001
   15  -0.1668501166591453E+000
   16   0.1139541331810701E+001
   17  -0.8664018495157583E+000
   18   0.0000000000000000E+000
   19   0.0000000000000000E+000
   20  -0.2283608835288281E-001
   21   0.0000000000000000E+000
   22   0.0000000000000000E+000
   23   0.1136390412857595E+000
   24   0.0000000000000000E+000
   25   0.0000000000000000E+000
   26  -0.2227216970590294E+000
Sym= Ag
Ene=    5.1347
Spin= Alpha
Occup=  0.0000
    1   0.1181503823983266E-001
    2   0.1666474312797176E-001
    3  -0.6663377139360808E-001
    4   0.8513279051784402E-001
    5   0.0000000000000000E+000
    6   0.0000000000000000E+000
    7   0.8986324154652710E+000
    8   0.0000000000000000E+000
    9   0.0000000000000000E+000
   10  -0.8447614060079405E+000
   11   0.0000000000000000E+000
   12   0.0000000000000000E+000
   13   0.3620653098902301E+000
   14   0.1181503823983266E-001
   15   0.1666474312797176E-001
   16  -0.6663377139360808E-001
   17   0.8513279051784402E-001
   18   0.0000000000000000E+000
   19   0.0000000000000000E+000
   20  -0.8986324154652710E+000
   21   0.0000000000000000E+000
   22   0.0000000000000000E+000
   23   0.8447614060079405E+000
   24   0.0000000000000000E+000
   25   0.0000000000000000E+000
   26  -0.3620653098902301E+000
Sym= Ag
Ene=   51.1355
Spin= Alpha
Occup=  0.0000
    1  -0.1588301491460732E+001
    2   0.1641972770749508E+001
    3  -0.1469385703333425E+000
    4   0.7927282399314754E-001
    5   0.0000000000000000E+000
    6   0.0000000000000000E+000
    7   0.9118789435763837E-002
    8   0.0000000000000000E+000
    9   0.0000000000000000E+000
   10  -0.1140318774938271E-001
   11   0.0000000000000000E+000
   12   0.0000000000000000E+000
   13  -0.3429218495197672E-002
   14  -0.1588301491460732E+001
   15   0.1641972770749508E+001
   16  -0.1469385703333425E+000
   17   0.7927282399314754E-001
   18   0.0000000000000000E+000
   19   0.0000000000000000E+000
   20  -0.9118789435763837E-002
   21   0.0000000000000000E+000
   22   0.0000000000000000E+000
   23   0.1140318774938271E-001
   24   0.0000000000000000E+000
   25   0.0000000000000000E+000
   26   0.3429218495197672E-002
Sym= B3u
Ene=   -0.7128
Spin= Alpha
Occup=  2.0000
    1   0.0000000000000000E+000
    2   0.0000000000000000E+000
    3   0.0000000000000000E+000
    4   0.0000000000000000E+000
    5   0.2013676599297598E+000
    6   0.0000000000000000E+000
    7   0.0000000000000000E+000
    8   0.3204545042196594E+000
    9   0.0000000000000000E+000
   10   0.0000000000000000E+000
   11   0.2570923224977715E+000
   12   0.0000000000000000E+000
   13   0.0000000000000000E+000
   14   0.0000000000000000E+000
   15   0.0000000000000000E+000
   16   0.0000000000000000E+000
   17   0.0000000000000000E+000
   18   0.2013676599297598E+000
   19   0.0000000000000000E+000
   20   0.0000000000000000E+000
   21   0.3204545042196594E+000
   22   0.0000000000000000E+000
   23   0.0000000000000000E+000
   24   0.2570923224977715E+000
   25   0.0000000000000000E+000
   26   0.0000000000000000E+000
Sym= B3u
Ene=    0.9139
Spin= Alpha
Occup=  0.0000
    1   0.0000000000000000E+000
    2   0.0000000000000000E+000
    3   0.0000000000000000E+000
    4   0.0000000000000000E+000
    5   0.1658838477214620E+000
    6   0.0000000000000000E+000
    7   0.0000000000000000E+000
    8   0.5900660680302093E+000
    9   0.0000000000000000E+000
   10   0.0000000000000000E+000
   11  -0.6851512286780306E+000
   12   0.0000000000000000E+000
   13   0.0000000000000000E+000
   14   0.0000000000000000E+000
   15   0.0000000000000000E+000
   16   0.0000000000000000E+000
   17   0.0000000000000000E+000
   18   0.1658838477214620E+000
   19   0.0000000000000000E+000
   20   0.0000000000000000E+000
   21   0.5900660680302093E+000
   22   0.0000000000000000E+000
   23   0.0000000000000000E+000
   24  -0.6851512286780306E+000
   25   0.0000000000000000E+000
   26   0.0000000000000000E+000
Sym= B3u
Ene=    5.0213
Spin= Alpha
Occup=  0.0000
    1   0.0000000000000000E+000
    2   0.0000000000000000E+000
    3   0.0000000000000000E+000
    4   0.0000000000000000E+000
    5   0.8928234650077491E+000
    6   0.0000000000000000E+000
    7   0.0000000000000000E+000
    8  -0.9392467852838428E+000
    9   0.0000000000000000E+000
   10   0.0000000000000000E+000
   11   0.3294816281355629E+000
   12   0.0000000000000000E+000
   13   0.0000000000000000E+000
   14   0.0000000000000000E+000
   15   0.0000000000000000E+000
   16   0.0000000000000000E+000
   17   0.0000000000000000E+000
   18   0.8928234650077491E+000
   19   0.0000000000000000E+000
   20   0.0000000000000000E+000
   21  -0.9392467852838428E+000
   22   0.0000000000000000E+000
   23   0.0000000000000000E+000
   24   0.3294816281355629E+000
   25   0.0000000000000000E+000
   26   0.0000000000000000E+000
Sym= B2u
Ene=   -0.7128
Spin= Alpha
Occup=  2.0000
    1   0.0000000000000000E+000
    2   0.0000000000000000E+000
    3   0.0000000000000000E+000
    4   0.0000000000000000E+000
    5   0.0000000000000000E+000
    6   0.2013676599297604E+000
    7   0.0000000000000000E+000
    8   0.0000000000000000E+000
    9   0.3204545042196603E+000
   10   0.0000000000000000E+000
   11   0.0000000000000000E+000
   12   0.2570923224977700E+000
   13   0.0000000000000000E+000
   14   0.0000000000000000E+000
   15   0.0000000000000000E+000
   16   0.0000000000000000E+000
   17   0.0000000000000000E+000
   18   0.0000000000000000E+000
   19   0.2013676599297604E+000
   20   0.0000000000000000E+000
   21   0.0000000000000000E+000
   22   0.3204545042196603E+000
   23   0.0000000000000000E+000
   24   0.0000000000000000E+000
   25   0.2570923224977700E+000
   26   0.0000000000000000E+000
Sym= B2u
Ene=    0.9139
Spin= Alpha
Occup=  0.0000
    1   0.0000000000000000E+000
    2   0.0000000000000000E+000
    3   0.0000000000000000E+000
    4   0.0000000000000000E+000
    5   0.0000000000000000E+000
    6   0.1658838477214622E+000
    7   0.0000000000000000E+000
    8   0.0000000000000000E+000
    9   0.5900660680302081E+000
   10   0.0000000000000000E+000
   11   0.0000000000000000E+000
   12  -0.6851512286780309E+000
   13   0.0000000000000000E+000
   14   0.0000000000000000E+000
   15   0.0000000000000000E+000
   16   0.0000000000000000E+000
   17   0.0000000000000000E+000
   18   0.0000000000000000E+000
   19   0.1658838477214622E+000
   20   0.0000000000000000E+000
   21   0.0000000000000000E+000
   22   0.5900660680302081E+000
   23   0.0000000000000000E+000
   24   0.0000000000000000E+000
   25  -0.6851512286780309E+000
   26   0.0000000000000000E+000
Sym= B2u
Ene=    5.0213
Spin= Alpha
Occup=  0.0000
    1   0.0000000000000000E+000
    2   0.0000000000000000E+000
    3   0.0000000000000000E+000
    4   0.0000000000000000E+000
    5   0.0000000000000000E+000
    6   0.8928234650077489E+000
    7   0.0000000000000000E+000
    8   0.0000000000000000E+000
    9  -0.9392467852838433E+000
   10   0.0000000000000000E+000
   11   0.0000000000000000E+000
   12   0.3294816281355634E+000
   13   0.0000000000000000E+000
   14   0.0000000000000000E+000
   15   0.0000000000000000E+000
   16   0.0000000000000000E+000
   17   0.0000000000000000E+000
   18   0.0000000000000000E+000
   19   0.8928234650077489E+000
   20   0.0000000000000000E+000
   21   0.0000000000000000E+000
   22  -0.9392467852838433E+000
   23   0.0000000000000000E+000
   24   0.0000000000000000E+000
   25   0.3294816281355634E+000
   26   0.0000000000000000E+000
Sym= B1u
Ene=  -20.7410
Spin= Alpha
Occup=  2.0000
    1   0.3900269751924819E+000
    2   0.3336498649419954E+000
    3   0.3375528104705518E-002
    4  -0.6654318526341470E-005
    5   0.0000000000000000E+000
    6   0.0000000000000000E+000
    7  -0.1836197344104062E-002
    8   0.0000000000000000E+000
    9   0.0000000000000000E+000
   10   0.9233853605966645E-003
   11   0.0000000000000000E+000
   12   0.0000000000000000E+000
   13  -0.2777397610928004E-003
   14  -0.3900269751924819E+000
   15  -0.3336498649419954E+000
   16  -0.3375528104705518E-002
   17   0.6654318526341470E-005
   18   0.0000000000000000E+000
   19   0.0000000000000000E+000
   20  -0.1836197344104062E-002
   21   0.0000000000000000E+000
   22   0.0000000000000000E+000
   23   0.9233853605966645E-003
   24   0.0000000000000000E+000
   25   0.0000000000000000E+000
   26  -0.2777397610928004E-003
Sym= B1u
Ene=   -1.0996
Spin= Alpha
Occup=  2.0000
    1  -0.8889895970356358E-001
    2  -0.1503696110336590E+000
    3   0.4536854568398160E+000
    4   0.4662227660566876E+000
    5   0.0000000000000000E+000
    6   0.0000000000000000E+000
    7   0.6310581047184538E-001
    8   0.0000000000000000E+000
    9   0.0000000000000000E+000
   10   0.8071086156507606E-001
   11   0.0000000000000000E+000
   12   0.0000000000000000E+000
   13   0.3261094085531146E-002
   14   0.8889895970356358E-001
   15   0.1503696110336590E+000
   16  -0.4536854568398160E+000
   17  -0.4662227660566876E+000
   18   0.0000000000000000E+000
   19   0.0000000000000000E+000
   20   0.6310581047184538E-001
   21   0.0000000000000000E+000
   22   0.0000000000000000E+000
   23   0.8071086156507606E-001
   24   0.0000000000000000E+000
   25   0.0000000000000000E+000
   26   0.3261094085531146E-002
Sym= B1u
Ene=    0.4315
Spin= Alpha
Occup=  0.0000
    1   0.4972076041005385E-001
    2   0.8732031773883786E-001
    3  -0.2679022184208154E+000
    4  -0.1418974849719363E+001
    5   0.0000000000000000E+000
    6   0.0000000000000000E+000
    7   0.1998897188395294E+000
    8   0.0000000000000000E+000
    9   0.0000000000000000E+000
   10   0.2901406361834798E+000
   11   0.0000000000000000E+000
   12   0.0000000000000000E+000
   13   0.1308548242482187E+001
   14  -0.4972076041005385E-001
   15  -0.8732031773883786E-001
   16   0.2679022184208154E+000
   17   0.1418974849719363E+001
   18   0.0000000000000000E+000
   19   0.0000000000000000E+000
   20   0.1998897188395294E+000
   21   0.0000000000000000E+000
   22   0.0000000000000000E+000
   23   0.2901406361834798E+000
   24   0.0000000000000000E+000
   25   0.0000000000000000E+000
   26   0.1308548242482187E+001
Sym= B1u
Ene=    0.9763
Spin= Alpha
Occup=  0.0000
    1  -0.1293557571087562E-001
    2  -0.2614560811861120E-001
    3   0.1669570223192105E+000
    4   0.7815155475454983E+000
    5   0.0000000000000000E+000
    6   0.0000000000000000E+000
    7   0.2207261678943161E+000
    8   0.0000000000000000E+000
    9   0.0000000000000000E+000
   10   0.6271794405518073E+000
   11   0.0000000000000000E+000
   12   0.0000000000000000E+000
   13  -0.1291270033382929E+001
   14   0.1293557571087562E-001
   15   0.2614560811861120E-001
   16  -0.1669570223192105E+000
   17  -0.7815155475454983E+000
   18   0.0000000000000000E+000
   19   0.0000000000000000E+000
   20   0.2207261678943161E+000
   21   0.0000000000000000E+000
   22   0.0000000000000000E+000
   23   0.6271794405518073E+000
   24   0.0000000000000000E+000
   25   0.0000000000000000E+000
   26  -0.1291270033382929E+001
Sym= B1u
Ene=    1.5038
Spin= Alpha
Occup=  0.0000
    1   0.7516165990239651E-001
    2   0.1606389918750003E+000
    3  -0.1310193537578861E+001
    4   0.3870256810783068E+001
    5   0.0000000000000000E+000
    6   0.0000000000000000E+000
    7   0.6559038288024910E-001
    8   0.0000000000000000E+000
    9   0.0000000000000000E+000
   10   0.5219807770779737E-001
   11   0.0000000000000000E+000
   12   0.0000000000000000E+000
   13  -0.1968393763023205E+001
   14  -0.7516165990239651E-001
   15  -0.1606389918750003E+000
   16   0.1310193537578861E+001
   17  -0.3870256810783068E+001
   18   0.0000000000000000E+000
   19   0.0000000000000000E+000
   20   0.6559038288024910E-001
   21   0.0000000000000000E+000
   22   0.0000000000000000E+000
   23   0.5219807770779737E-001
   24   0.0000000000000000E+000
   25   0.0000000000000000E+000
   26  -0.1968393763023205E+001
Sym= B1u
Ene=    5.5529
Spin= Alpha
Occup=  0.0000
    1  -0.1959682073647826E-001
    2  -0.3438682830262512E-001
    3   0.2011046392883176E+000
    4  -0.5500261823975979E+000
    5   0.0000000000000000E+000
    6   0.0000000000000000E+000
    7   0.9234584500175458E+000
    8   0.0000000000000000E+000
    9   0.0000000000000000E+000
   10  -0.1242108513174996E+001
   11   0.0000000000000000E+000
   12   0.0000000000000000E+000
   13   0.6944444189473981E+000
   14   0.1959682073647826E-001
   15   0.3438682830262512E-001
   16  -0.2011046392883176E+000
   17   0.5500261823975979E+000
   18   0.0000000000000000E+000
   19   0.0000000000000000E+000
   20   0.9234584500175458E+000
   21   0.0000000000000000E+000
   22   0.0000000000000000E+000
   23  -0.1242108513174996E+001
   24   0.0000000000000000E+000
   25   0.0000000000000000E+000
   26   0.6944444189473981E+000
Sym= B1u
Ene=   51.3215
Spin= Alpha
Occup=  0.0000
    1   0.1588447979123849E+001
    2  -0.1650454090850341E+001
    3   0.1877399602689536E+000
    4  -0.3035448741196090E+000
    5   0.0000000000000000E+000
    6   0.0000000000000000E+000
    7   0.1891740594399208E-001
    8   0.0000000000000000E+000
    9   0.0000000000000000E+000
   10  -0.4097361012168718E-001
   11   0.0000000000000000E+000
   12   0.0000000000000000E+000
   13   0.1406999997125890E+000
   14  -0.1588447979123849E+001
   15   0.1650454090850341E+001
   16  -0.1877399602689536E+000
   17   0.3035448741196090E+000
   18   0.0000000000000000E+000
   19   0.0000000000000000E+000
   20   0.1891740594399208E-001
   21   0.0000000000000000E+000
   22   0.0000000000000000E+000
   23  -0.4097361012168718E-001
   24   0.0000000000000000E+000
   25   0.0000000000000000E+000
   26   0.1406999997125890E+000
Sym= B2g
Ene=   -0.2276
Spin= Alpha
Occup=  1.0000
    1   0.0000000000000000E+000
    2   0.0000000000000000E+000
    3   0.0000000000000000E+000
    4   0.0000000000000000E+000
    5   0.2451509709861915E+000
    6   0.0000000000000000E+000
    7   0.0000000000000000E+000
    8   0.3799516718722183E+000
    9   0.0000000000000000E+000
   10   0.0000000000000000E+000
   11   0.3603118656545166E+000
   12   0.0000000000000000E+000
   13   0.0000000000000000E+000
   14   0.0000000000000000E+000
   15   0.0000000000000000E+000
   16   0.0000000000000000E+000
   17   0.0000000000000000E+000
   18  -0.2451509709861915E+000
   19   0.0000000000000000E+000
   20   0.0000000000000000E+000
   21  -0.3799516718722183E+000
   22   0.0000000000000000E+000
   23   0.0000000000000000E+000
   24  -0.3603118656545166E+000
   25   0.0000000000000000E+000
   26   0.0000000000000000E+000
Sym= B2g
Ene=    1.0282
Spin= Alpha
Occup=  0.0000
    1   0.0000000000000000E+000
    2   0.0000000000000000E+000
    3   0.0000000000000000E+000
    4   0.0000000000000000E+000
    5   0.1497479272273213E+000
    6   0.0000000000000000E+000
    7   0.0000000000000000E+000
    8   0.5519232009218367E+000
    9   0.0000000000000000E+000
   10   0.0000000000000000E+000
   11  -0.1182598885300879E+001
   12   0.0000000000000000E+000
   13   0.0000000000000000E+000
   14   0.0000000000000000E+000
   15   0.0000000000000000E+000
   16   0.0000000000000000E+000
   17   0.0000000000000000E+000
   18  -0.1497479272273213E+000
   19   0.0000000000000000E+000
   20   0.0000000000000000E+000
   21  -0.5519232009218367E+000
   22   0.0000000000000000E+000
   23   0.0000000000000000E+000
   24   0.1182598885300879E+001
   25   0.0000000000000000E+000
   26   0.0000000000000000E+000
Sym= B2g
Ene=    5.3378
Spin= Alpha
Occup=  0.0000
    1   0.0000000000000000E+000
    2   0.0000000000000000E+000
    3   0.0000000000000000E+000
    4   0.0000000000000000E+000
    5  -0.9042287758360708E+000
    6   0.0000000000000000E+000
    7   0.0000000000000000E+000
    8   0.1032652420881431E+001
    9   0.0000000000000000E+000
   10   0.0000000000000000E+000
   11  -0.5089908636790730E+000
   12   0.0000000000000000E+000
   13   0.0000000000000000E+000
   14   0.0000000000000000E+000
   15   0.0000000000000000E+000
   16   0.0000000000000000E+000
   17   0.0000000000000000E+000
   18   0.9042287758360708E+000
   19   0.0000000000000000E+000
   20   0.0000000000000000E+000
   21  -0.1032652420881431E+001
   22   0.0000000000000000E+000
   23   0.0000000000000000E+000
   24   0.5089908636790730E+000
   25   0.0000000000000000E+000
   26   0.0000000000000000E+000
Sym= B3g
Ene=   -0.2276
Spin= Alpha
Occup=  1.0000
    1   0.0000000000000000E+000
    2   0.0000000000000000E+000
    3   0.0000000000000000E+000
    4   0.0000000000000000E+000
    5   0.0000000000000000E+000
    6   0.2451509709861918E+000
    7   0.0000000000000000E+000
    8   0.0000000000000000E+000
    9   0.3799516718722192E+000
   10   0.0000000000000000E+000
   11   0.0000000000000000E+000
   12   0.3603118656545148E+000
   13   0.0000000000000000E+000
   14   0.0000000000000000E+000
   15   0.0000000000000000E+000
   16   0.0000000000000000E+000
   17   0.0000000000000000E+000
   18   0.0000000000000000E+000
   19  -0.2451509709861918E+000
   20   0.0000000000000000E+000
   21   0.0000000000000000E+000
   22  -0.3799516718722192E+000
   23   0.0000000000000000E+000
   24   0.0000000000000000E+000
   25  -0.3603118656545148E+000
   26   0.0000000000000000E+000
Sym= B3g
Ene=    1.0282
Spin= Alpha
Occup=  0.0000
    1   0.0000000000000000E+000
    2   0.0000000000000000E+000
    3   0.0000000000000000E+000
    4   0.0000000000000000E+000
    5   0.0000000000000000E+000
    6   0.1497479272273213E+000
    7   0.0000000000000000E+000
    8   0.0000000000000000E+000
    9   0.5519232009218358E+000
   10   0.0000000000000000E+000
   11   0.0000000000000000E+000
   12  -0.1182598885300879E+001
   13   0.0000000000000000E+000
   14   0.0000000000000000E+000
   15   0.0000000000000000E+000
   16   0.0000000000000000E+000
   17   0.0000000000000000E+000
   18   0.0000000000000000E+000
   19  -0.1497479272273213E+000
   20   0.0000000000000000E+000
   21   0.0000000000000000E+000
   22  -0.5519232009218358E+000
   23   0.0000000000000000E+000
   24   0.0000000000000000E+000
   25   0.1182598885300879E+001
   26   0.0000000000000000E+000
Sym= B3g
Ene=    5.3378
Spin= Alpha
Occup=  0.0000
    1   0.0000000000000000E+000
    2   0.0000000000000000E+000
    3   0.0000000000000000E+000
    4   0.0000000000000000E+000
    5   0.0000000000000000E+000
    6  -0.9042287758360708E+000
    7   0.0000000000000000E+000
    8   0.0000000000000000E+000
    9   0.1032652420881432E+001
   10   0.0000000000000000E+000
   11   0.0000000000000000E+000
   12  -0.5089908636790738E+000
   13   0.0000000000000000E+000
   14   0.0000000000000000E+000
   15   0.0000000000000000E+000
   16   0.0000000000000000E+000
   17   0.0000000000000000E+000
   18   0.0000000000000000E+000
   19   0.9042287758360708E+000
   20   0.0000000000000000E+000
   21   0.0000000000000000E+000
   22  -0.1032652420881432E+001
   23   0.0000000000000000E+000
   24   0.0000000000000000E+000
   25   0.5089908636790738E+000
   26   0.0000000000000000E+000
[End of Molden output from Dalton]
