<?xml version="1.0" encoding="ISO-8859-1"?>
<modeling>
 <generator>
  <i name="program" type="string">vasp </i>
  <i name="version" type="string">6.4.1  </i>
  <i name="subversion" type="string">05Apr23 (build Oct 18 2023 12:23:55) complex                          parallel </i>
  <i name="platform" type="string">LinuxIFC </i>
  <i name="date" type="string">2023 11 21 </i>
  <i name="time" type="string">14:37:20 </i>
 </generator>
 <incar>
  <i type="string" name="SYSTEM">default</i>
  <i type="string" name="PREC">accurate</i>
  <i name="EDIFF">      0.00000001</i>
  <i type="logical" name="LREAL"> F  </i>
  <i type="int" name="ISMEAR">     0</i>
  <i name="SIGMA">      0.10000000</i>
  <i type="logical" name="LWAVE"> F  </i>
  <i type="logical" name="LCHARG"> F  </i>
  <i type="logical" name="LEPSILON"> T  </i>
 </incar>
 <primitive_cell>
  <structure name="primitive_cell" >
   <crystal>
    <varray name="basis" >
     <v>       2.84515074      -2.84515074       0.00000000 </v>
     <v>       2.84515074       0.00000000       2.84515074 </v>
     <v>       0.00000000      -2.84515074       2.84515074 </v>
    </varray>
    <i name="volume">     46.06232310 </i>
    <varray name="rec_basis" >
     <v>       0.17573761      -0.17573761      -0.17573761 </v>
     <v>       0.17573761       0.17573761       0.17573761 </v>
     <v>      -0.17573761      -0.17573761       0.17573761 </v>
    </varray>
   </crystal>
   <varray name="positions" >
    <v>       0.00000000       0.00000000       0.00000000 </v>
    <v>       0.50000000       0.50000000       0.50000000 </v>
   </varray>
  </structure>
  <varray name="primitive_index" >
   <v type="int" >        1 </v>
   <v type="int" >        5 </v>
  </varray>
 </primitive_cell>
 <kpoints>
  <generation param="Gamma">
   <v type="int" name="divisions">       1        1        1 </v>
   <v name="usershift">      0.00000000       0.00000000       0.00000000 </v>
   <v name="genvec1">      1.00000000       0.00000000       0.00000000 </v>
   <v name="genvec2">      0.00000000       1.00000000       0.00000000 </v>
   <v name="genvec3">      0.00000000       0.00000000       1.00000000 </v>
   <v name="shift">      0.00000000       0.00000000       0.00000000 </v>
  </generation>
  <varray name="kpointlist" >
   <v>       0.00000000       0.00000000       0.00000000 </v>
  </varray>
  <varray name="weights" >
   <v>       1.00000000 </v>
  </varray>
 </kpoints>
 <parameters>
  <separator name="general" >
   <i type="string" name="SYSTEM">default</i>
   <i type="logical" name="LCOMPAT"> F  </i>
  </separator>
  <separator name="electronic" >
   <i type="string" name="PREC">accura</i>
   <i name="ENMAX">    262.47200000</i>
   <i name="ENAUG">    368.05600000</i>
   <i name="EDIFF">      0.00000001</i>
   <i type="int" name="IALGO">    38</i>
   <i type="int" name="IWAVPR">    10</i>
   <i type="int" name="NBANDS">    48</i>
   <i type="int" name="NBANDSLOW">    -1</i>
   <i type="int" name="NBANDSHIGH">    -1</i>
   <i name="NELECT">     56.00000000</i>
   <i type="int" name="TURBO">     0</i>
   <i type="int" name="IRESTART">     0</i>
   <i type="int" name="NREBOOT">     0</i>
   <i type="int" name="NMIN">     0</i>
   <i name="EREF">      0.00000000</i>
   <separator name="electronic smearing" >
    <i type="int" name="ISMEAR">     0</i>
    <i name="SIGMA">      0.10000000</i>
    <i name="KSPACING">      0.50000000</i>
    <i type="logical" name="KGAMMA"> T  </i>
    <i type="logical" name="KBLOWUP"> T  </i>
   </separator>
   <separator name="electronic projectors" >
    <i type="logical" name="LREAL"> F  </i>
    <v name="ROPT">      0.00000000      0.00000000</v>
    <i type="int" name="LMAXPAW">  -100</i>
    <i type="int" name="LMAXMIX">     2</i>
    <i type="logical" name="NLSPLINE"> F  </i>
   </separator>
   <separator name="electronic startup" >
    <i type="int" name="ISTART">     0</i>
    <i type="int" name="ICHARG">     2</i>
    <i type="int" name="INIWAV">     1</i>
   </separator>
   <separator name="electronic spin" >
    <i type="int" name="ISPIN">     1</i>
    <i type="logical" name="LNONCOLLINEAR"> F  </i>
    <v name="MAGMOM">      1.00000000      1.00000000      1.00000000      1.00000000      1.00000000      1.00000000      1.00000000      1.00000000</v>
    <i name="NUPDOWN">     -1.00000000</i>
    <i type="logical" name="LSORBIT"> F  </i>
    <v name="SAXIS">      0.00000000      0.00000000      1.00000000</v>
    <i type="logical" name="LSPIRAL"> F  </i>
    <v name="QSPIRAL">      0.00000000      0.00000000      0.00000000</v>
    <i type="logical" name="LZEROZ"> F  </i>
   </separator>
   <separator name="electronic exchange-correlation" >
    <i type="logical" name="LASPH"> F  </i>
    <i type="logical" name="LMETAGGA"> F  </i>
   </separator>
   <separator name="electronic convergence" >
    <i type="int" name="NELM">    60</i>
    <i type="int" name="NELMDL">     0</i>
    <i type="int" name="NELMIN">     2</i>
    <i name="ENINI">    262.47200000</i>
    <separator name="electronic convergence detail" >
     <i type="logical" name="LDIAG"> T  </i>
     <i type="logical" name="LSUBROT"> F  </i>
     <i name="WEIMIN">      0.00000000</i>
     <i name="EBREAK">      0.00000000</i>
     <i name="DEPER">      0.30000000</i>
     <i type="int" name="NRMM">     4</i>
     <i name="TIME">      0.40000000</i>
    </separator>
   </separator>
   <separator name="electronic mixer" >
    <i name="AMIX">      0.40000000</i>
    <i name="BMIX">      1.00000000</i>
    <i name="AMIN">      0.10000000</i>
    <i name="AMIX_MAG">      1.60000000</i>
    <i name="BMIX_MAG">      1.00000000</i>
    <separator name="electronic mixer details" >
     <i type="int" name="IMIX">     4</i>
     <i type="logical" name="MIXFIRST"> F  </i>
     <i type="int" name="MAXMIX">   -45</i>
     <i name="WC">    100.00000000</i>
     <i type="int" name="INIMIX">     1</i>
     <i type="int" name="MIXPRE">     1</i>
     <i type="int" name="MREMOVE">     5</i>
    </separator>
   </separator>
   <separator name="electronic dipolcorrection" >
    <i type="logical" name="LDIPOL"> F  </i>
    <i type="logical" name="LMONO"> F  </i>
    <i type="int" name="IDIPOL">     0</i>
    <i name="EPSILON">      1.00000000</i>
    <v name="DIPOL">   -100.00000000   -100.00000000   -100.00000000</v>
    <i name="EFIELD">      0.00000000</i>
   </separator>
  </separator>
  <separator name="grids" >
   <i type="int" name="NGX">    30</i>
   <i type="int" name="NGY">    30</i>
   <i type="int" name="NGZ">    30</i>
   <i type="int" name="NGXF">    60</i>
   <i type="int" name="NGYF">    60</i>
   <i type="int" name="NGZF">    60</i>
   <i type="logical" name="ADDGRID"> F  </i>
  </separator>
  <separator name="ionic" >
   <i type="int" name="NSW">     0</i>
   <i type="int" name="IBRION">    -1</i>
   <i type="int" name="MDALGO">     0</i>
   <i type="int" name="ISIF">     2</i>
   <i name="PSTRESS">      0.00000000</i>
   <i name="EDIFFG">      0.00000010</i>
   <i type="int" name="NFREE">     0</i>
   <i name="POTIM">      0.50000000</i>
   <i name="SMASS">     -3.00000000</i>
   <i name="SCALEE">      1.00000000</i>
  </separator>
  <separator name="ionic md" >
   <i name="TEBEG">      0.00010000</i>
   <i name="TEEND">      0.00010000</i>
   <i type="int" name="NBLOCK">     1</i>
   <i type="int" name="KBLOCK">     1</i>
   <i type="int" name="NPACO">   256</i>
   <i name="APACO">     10.00000000</i>
  </separator>
  <separator name="symmetry" >
   <i type="int" name="ISYM">     2</i>
   <i name="SYMPREC">      0.00001000</i>
  </separator>
  <separator name="dos" >
   <i type="int" name="LORBIT">     0</i>
   <v name="RWIGS">     -1.00000000     -1.00000000</v>
   <i type="int" name="NEDOS">   301</i>
   <i name="EMIN">     10.00000000</i>
   <i name="EMAX">    -10.00000000</i>
   <i name="EFERMI">      0.00000000</i>
  </separator>
  <separator name="writing" >
   <i type="int" name="NWRITE">     2</i>
   <i type="logical" name="LWAVE"> F  </i>
   <i type="logical" name="LDOWNSAMPLE"> F  </i>
   <i type="logical" name="LCHARG"> F  </i>
   <i type="logical" name="LPARD"> F  </i>
   <i type="logical" name="LVTOT"> F  </i>
   <i type="logical" name="LVHAR"> F  </i>
   <i type="logical" name="LELF"> F  </i>
   <i type="logical" name="LOPTICS"> F  </i>
   <v name="STM">      0.00000000      0.00000000      0.00000000      0.00000000      0.00000000      0.00000000      0.00000000</v>
  </separator>
  <separator name="performance" >
   <i type="int" name="NPAR">    48</i>
   <i type="int" name="NSIM">     4</i>
   <i type="int" name="NBLK">    -1</i>
   <i type="logical" name="LPLANE"> T  </i>
   <i type="logical" name="LSCALAPACK"> T  </i>
   <i type="logical" name="LSCAAWARE"> T  </i>
   <i type="logical" name="LSCALU"> F  </i>
   <i type="logical" name="LASYNC"> F  </i>
   <i type="logical" name="LORBITALREAL"> F  </i>
  </separator>
  <separator name="miscellaneous" >
   <i type="int" name="IDIOT">     3</i>
   <i type="int" name="PHON_NSTRUCT">    -1</i>
   <i type="logical" name="LMUSIC"> F  </i>
   <v name="POMASS">     22.99000000     35.45300000</v>
   <v name="DARWINR">      0.00000000      0.00000000</v>
   <v name="DARWINV">      1.00000000      1.00000000</v>
   <i type="logical" name="LCORR"> T  </i>
  </separator>
  <i type="logical" name="GGA_COMPAT"> T  </i>
  <i type="logical" name="LBERRY"> F  </i>
  <i type="int" name="ICORELEVEL">     0</i>
  <i type="logical" name="LDAU"> F  </i>
  <i type="int" name="I_CONSTRAINED_M">     0</i>
  <separator name="electronic exchange-correlation" >
   <i type="string" name="GGA">--</i>
   <i type="int" name="VOSKOWN">     0</i>
   <i type="logical" name="LHFCALC"> F  </i>
   <i type="string" name="PRECFOCK"></i>
   <i type="logical" name="LSYMGRAD"> F  </i>
   <i type="logical" name="LHFONE"> F  </i>
   <i type="logical" name="LRHFCALC"> F  </i>
   <i type="logical" name="LTHOMAS"> F  </i>
   <i type="logical" name="LMODELHF"> F  </i>
   <i type="logical" name="LFOCKACE"> F  </i>
   <i name="ENCUT4O">     -1.00000000</i>
   <i type="int" name="EXXOEP">     0</i>
   <i type="int" name="FOURORBIT">     0</i>
   <i name="AEXX">      0.00000000</i>
   <i name="HFALPHA">      0.00000000</i>
   <i name="MCALPHA">      0.00000000</i>
   <i name="ALDAX">      1.00000000</i>
   <i name="AGGAX">      1.00000000</i>
   <i name="ALDAC">      1.00000000</i>
   <i name="AGGAC">      1.00000000</i>
   <i type="int" name="NKREDX">     1</i>
   <i type="int" name="NKREDY">     1</i>
   <i type="int" name="NKREDZ">     1</i>
   <i type="logical" name="SHIFTRED"> F  </i>
   <i type="logical" name="ODDONLY"> F  </i>
   <i type="logical" name="EVENONLY"> F  </i>
   <i type="int" name="LMAXFOCK">     0</i>
   <i type="int" name="NMAXFOCKAE">     0</i>
   <i type="logical" name="LFOCKAEDFT"> F  </i>
   <i name="HFSCREEN">      0.00000000</i>
   <i name="HFSCREENC">      0.00000000</i>
   <i type="int" name="NBANDSGWLOW">     0</i>
  </separator>
  <separator name="vdW DFT" >
   <i type="logical" name="LUSE_VDW"> F  </i>
   <i type="int" name="IVDW_NL">     1</i>
   <i type="logical" name="LSPIN_VDW"> F  </i>
   <i name="Zab_VDW">     -0.84910000</i>
   <i name="PARAM1">      0.12340000</i>
   <i name="PARAM2">      1.00000000</i>
   <i name="PARAM3">      0.00000000</i>
  </separator>
  <separator name="model GW" >
   <i type="int" name="MODEL_GW">     0</i>
   <i name="MODEL_EPS0">     13.81869693</i>
   <i name="MODEL_ALPHA">      1.00000000</i>
  </separator>
  <separator name="linear response parameters" >
   <i type="logical" name="LEPSILON"> T  </i>
   <i type="logical" name="LRPA"> F  </i>
   <i type="logical" name="LNABLA"> F  </i>
   <i type="logical" name="LVEL"> F  </i>
   <i type="int" name="KINTER">     0</i>
   <i name="CSHIFT">      0.10000000</i>
   <i name="OMEGAMAX">     -1.00000000</i>
   <i name="DEG_THRESHOLD">      0.00200000</i>
   <i name="RTIME">     -0.10000000</i>
   <i name="WPLASMAI">      0.00000000</i>
   <v name="DFIELD">      0.00000000      0.00000000      0.00000000</v>
   <v name="WPLASMA">      0.00000000      0.00000000      0.00000000      0.00000000      0.00000000      0.00000000      0.00000000      0.00000000      0.00000000</v>
  </separator>
  <separator name="orbital magnetization" >
   <i type="logical" name="NUCIND"> F  </i>
   <v name="MAGPOS">      0.00000000      0.00000000      0.00000000</v>
   <i type="logical" name="LNICSALL"> T  </i>
   <i type="logical" name="ORBITALMAG"> F  </i>
   <i type="logical" name="LMAGBLOCH"> F  </i>
   <i type="logical" name="LCHIMAG"> F  </i>
   <i type="logical" name="LGAUGE"> T  </i>
   <i type="int" name="MAGATOM">     0</i>
   <v name="MAGDIPOL">      0.00000000      0.00000000      0.00000000</v>
   <v name="AVECCONST">      0.00000000      0.00000000      0.00000000</v>
  </separator>
  <separator name="response functions" >
   <i type="logical" name="LALL_IN_ONE"> F  </i>
   <i type="int" name="IALL_IN_ONE">    -1</i>
   <i type="int" name="NBANDS_WAVE">    -1</i>
   <i type="logical" name="LFINITE_TEMPERATURE"> F  </i>
   <i type="logical" name="LADDER"> F  </i>
   <i type="logical" name="LRPAFORCE"> F  </i>
   <i type="logical" name="LFXC"> F  </i>
   <i type="logical" name="LHARTREE"> T  </i>
   <i type="int" name="IBSE">     0</i>
   <v type="int" name="KPOINT">    -1     0     0     0</v>
   <i type="logical" name="LTCTC"> F  </i>
   <i type="logical" name="LTCTE"> F  </i>
   <i type="logical" name="LTETE"> F  </i>
   <i type="logical" name="LTRIPLET"> F  </i>
   <i type="logical" name="LFXCEPS"> F  </i>
   <i type="logical" name="LFXHEG"> F  </i>
   <i type="int" name="NATURALO">     2</i>
   <i type="logical" name="LHOLEGF"> F  </i>
   <i type="logical" name="L2ORDER"> F  </i>
   <i type="logical" name="LDMP1"> F  </i>
   <i type="logical" name="LMP2LT"> F  </i>
   <i type="logical" name="LSMP2LT"> F  </i>
   <i type="logical" name="LGWLF"> F  </i>
   <i name="ENCUTGW">     -1.60000002</i>
   <i name="ENCUTGWSOFT">     -1.60000002</i>
   <i name="ENCUTLF">     -1.00000000</i>
   <i type="logical" name="LESF_SPLINES"> F  </i>
   <i type="int" name="LMAXMP2">    -1</i>
   <i name="SCISSOR">      0.00000000</i>
   <i type="int" name="NOMEGA">     0</i>
   <i type="int" name="NOMEGAR">     0</i>
   <i type="int" name="NBANDSGW">    -1</i>
   <i type="int" name="NBANDSO">    -1</i>
   <i type="int" name="NBANDSV">    -1</i>
   <i type="int" name="NELMGW">     1</i>
   <i type="int" name="NELMHF">     1</i>
   <i type="int" name="DIM">     3</i>
   <i type="int" name="IESPILON">     4</i>
   <i type="int" name="ANTIRES">     0</i>
   <i name="OMEGAMAX">    -30.00000000</i>
   <i name="OMEGAMIN">    -30.00000000</i>
   <i name="OMEGATL">   -200.00000000</i>
   <i type="int" name="OMEGAGRID">     0</i>
   <i name="CSHIFT">     -0.10000000</i>
   <i type="logical" name="LSELFENERGY"> F  </i>
   <i type="logical" name="LSPECTRAL"> F  </i>
   <i type="logical" name="LSPECTRALGW"> F  </i>
   <i type="logical" name="LSINGLES"> F  </i>
   <i type="logical" name="LFERMIGW"> F  </i>
   <i type="logical" name="ODDONLYGW"> F  </i>
   <i type="logical" name="EVENONLYGW"> F  </i>
   <i type="int" name="NKREDLFX">     1</i>
   <i type="int" name="NKREDLFY">     1</i>
   <i type="int" name="NKREDLFZ">     1</i>
   <i type="int" name="MAXMEM">  2800</i>
   <i type="int" name="TELESCOPE">     0</i>
   <i type="int" name="NTAUPAR">    -1</i>
   <i type="int" name="NOMEGAPAR">    -1</i>
   <i name="DAMP_NEWTON">      0.80000001</i>
   <i name="LAMBDA">      1.00000000</i>
  </separator>
  <separator name="External order field" >
   <i name="OFIELD_KAPPA">      0.00000000</i>
   <v name="OFIELD_K">      0.00000000      0.00000000      0.00000000</v>
   <i name="OFIELD_Q6_NEAR">      0.00000000</i>
   <i name="OFIELD_Q6_FAR">      0.00000000</i>
   <i name="OFIELD_A">      0.00000000</i>
  </separator>
  <separator name="optional k-points parameters" >
   <i type="int" name="KPOINTS_OPT_MODE">     1</i>
   <i type="logical" name="LKPOINTS_OPT"> F  </i>
  </separator>
 </parameters>
 <atominfo>
  <atoms>       8 </atoms>
  <types>       2 </types>
  <array name="atoms" >
   <dimension dim="1">ion</dimension>
   <field type="string">element</field>
   <field type="int">atomtype</field>
   <set>
    <rc><c>Na</c><c>   1</c></rc>
    <rc><c>Na</c><c>   1</c></rc>
    <rc><c>Na</c><c>   1</c></rc>
    <rc><c>Na</c><c>   1</c></rc>
    <rc><c>Cl</c><c>   2</c></rc>
    <rc><c>Cl</c><c>   2</c></rc>
    <rc><c>Cl</c><c>   2</c></rc>
    <rc><c>Cl</c><c>   2</c></rc>
   </set>
  </array>
  <array name="atomtypes" >
   <dimension dim="1">type</dimension>
   <field type="int">atomspertype</field>
   <field type="string">element</field>
   <field>mass</field>
   <field>valence</field>
   <field type="string">pseudopotential</field>
   <set>
    <rc><c>   4</c><c>Na</c><c>     22.99000000</c><c>      7.00000000</c><c>  PAW_PBE Na_pv 19Sep2006               </c></rc>
    <rc><c>   4</c><c>Cl</c><c>     35.45300000</c><c>      7.00000000</c><c>  PAW_PBE Cl 06Sep2000                  </c></rc>
   </set>
  </array>
 </atominfo>
 <structure name="initialpos" >
  <crystal>
   <varray name="basis" >
    <v>       5.69030148       0.00000000       0.00000000 </v>
    <v>       0.00000000       5.69030148       0.00000000 </v>
    <v>       0.00000000       0.00000000       5.69030148 </v>
   </varray>
   <i name="volume">    184.24929242 </i>
   <varray name="rec_basis" >
    <v>       0.17573761       0.00000000       0.00000000 </v>
    <v>       0.00000000       0.17573761       0.00000000 </v>
    <v>       0.00000000       0.00000000       0.17573761 </v>
   </varray>
  </crystal>
  <varray name="positions" >
   <v>       0.00000000       0.00000000       0.00000000 </v>
   <v>       0.00000000       0.50000000       0.50000000 </v>
   <v>       0.50000000       0.00000000       0.50000000 </v>
   <v>       0.50000000       0.50000000       0.00000000 </v>
   <v>       0.50000000       0.00000000       0.00000000 </v>
   <v>       0.50000000       0.50000000       0.50000000 </v>
   <v>       0.00000000       0.00000000       0.50000000 </v>
   <v>       0.00000000       0.50000000       0.00000000 </v>
  </varray>
 </structure>
 <calculation>
  <scstep>
   <time name="dav">    0.03    0.03</time>
   <time name="total">    0.04    0.07</time>
   <energy>
    <i name="alphaZ">     89.63511924 </i>
    <i name="ewald">  -2814.56806104 </i>
    <i name="hartreedc">  -1148.20417043 </i>
    <i name="XCdc">    178.98930888 </i>
    <i name="pawpsdc">   3310.49366381 </i>
    <i name="pawaedc">  -3665.24001416 </i>
    <i name="eentropy">     -0.00000000 </i>
    <i name="bandstr">   -508.00563502 </i>
    <i name="atom">   4702.73394638 </i>
    <i name="e_fr_energy">    145.83415764 </i>
    <i name="e_wo_entrp">    145.83415764 </i>
    <i name="e_0_energy">    145.83415764 </i>
   </energy>
  </scstep>
  <scstep>
   <time name="dav">    0.04    0.04</time>
   <time name="total">    0.04    0.04</time>
   <energy>
    <i name="e_fr_energy">    -23.36549383 </i>
    <i name="e_wo_entrp">    -23.36549383 </i>
    <i name="e_0_energy">    -23.36549383 </i>
   </energy>
  </scstep>
  <scstep>
   <time name="dav">    0.02    0.02</time>
   <time name="total">    0.02    0.02</time>
   <energy>
    <i name="e_fr_energy">    -26.21746085 </i>
    <i name="e_wo_entrp">    -26.21746085 </i>
    <i name="e_0_energy">    -26.21746085 </i>
   </energy>
  </scstep>
  <scstep>
   <time name="dav">    0.06    0.06</time>
   <time name="total">    0.06    0.06</time>
   <energy>
    <i name="e_fr_energy">    -26.23747936 </i>
    <i name="e_wo_entrp">    -26.23747936 </i>
    <i name="e_0_energy">    -26.23747936 </i>
   </energy>
  </scstep>
  <scstep>
   <time name="dav">    0.02    0.02</time>
   <time name="total">    0.04    0.04</time>
   <energy>
    <i name="e_fr_energy">    -26.23748058 </i>
    <i name="e_wo_entrp">    -26.23748058 </i>
    <i name="e_0_energy">    -26.23748058 </i>
   </energy>
  </scstep>
  <scstep>
   <time name="dav">    0.02    0.02</time>
   <time name="total">    0.05    0.05</time>
   <energy>
    <i name="e_fr_energy">    -25.13222235 </i>
    <i name="e_wo_entrp">    -25.13222235 </i>
    <i name="e_0_energy">    -25.13222235 </i>
   </energy>
  </scstep>
  <scstep>
   <time name="dav">    0.06    0.06</time>
   <time name="total">    0.08    0.08</time>
   <energy>
    <i name="e_fr_energy">    -25.04375456 </i>
    <i name="e_wo_entrp">    -25.04375456 </i>
    <i name="e_0_energy">    -25.04375456 </i>
   </energy>
  </scstep>
  <scstep>
   <time name="dav">    0.06    0.06</time>
   <time name="total">    0.08    0.08</time>
   <energy>
    <i name="e_fr_energy">    -25.07623324 </i>
    <i name="e_wo_entrp">    -25.07623324 </i>
    <i name="e_0_energy">    -25.07623324 </i>
   </energy>
  </scstep>
  <scstep>
   <time name="dav">    0.06    0.06</time>
   <time name="total">    0.09    0.09</time>
   <energy>
    <i name="e_fr_energy">    -25.07592539 </i>
    <i name="e_wo_entrp">    -25.07592539 </i>
    <i name="e_0_energy">    -25.07592539 </i>
   </energy>
  </scstep>
  <scstep>
   <time name="dav">    0.06    0.06</time>
   <time name="total">    0.08    0.08</time>
   <energy>
    <i name="e_fr_energy">    -25.07731392 </i>
    <i name="e_wo_entrp">    -25.07731392 </i>
    <i name="e_0_energy">    -25.07731392 </i>
   </energy>
  </scstep>
  <scstep>
   <time name="dav">    0.03    0.03</time>
   <time name="total">    0.06    0.06</time>
   <energy>
    <i name="e_fr_energy">    -25.07732253 </i>
    <i name="e_wo_entrp">    -25.07732253 </i>
    <i name="e_0_energy">    -25.07732253 </i>
   </energy>
  </scstep>
  <scstep>
   <time name="dav">    0.06    0.06</time>
   <time name="total">    0.08    0.08</time>
   <energy>
    <i name="e_fr_energy">    -25.07732463 </i>
    <i name="e_wo_entrp">    -25.07732463 </i>
    <i name="e_0_energy">    -25.07732463 </i>
   </energy>
  </scstep>
  <scstep>
   <time name="dav">    0.06    0.06</time>
   <time name="total">    0.08    0.08</time>
   <energy>
    <i name="e_fr_energy">    -25.07732506 </i>
    <i name="e_wo_entrp">    -25.07732506 </i>
    <i name="e_0_energy">    -25.07732506 </i>
   </energy>
  </scstep>
  <scstep>
   <time name="dav">    0.06    0.06</time>
   <time name="total">    0.07    0.07</time>
   <energy>
    <i name="alphaZ">     89.63511924 </i>
    <i name="ewald">  -2814.56806104 </i>
    <i name="hartreedc">  -1170.04695870 </i>
    <i name="XCdc">    182.44133061 </i>
    <i name="pawpsdc">   3943.56969056 </i>
    <i name="pawaedc">  -4299.96145138 </i>
    <i name="eentropy">     -0.00000000 </i>
    <i name="bandstr">   -658.88094073 </i>
    <i name="atom">   4702.73394638 </i>
    <i name="e_fr_energy">    -25.07732506 </i>
    <i name="e_wo_entrp">    -25.07732506 </i>
    <i name="e_0_energy">    -25.07732506 </i>
   </energy>
  </scstep>
  <structure>
   <crystal>
    <varray name="basis" >
     <v>       5.69030148       0.00000000       0.00000000 </v>
     <v>       0.00000000       5.69030148       0.00000000 </v>
     <v>       0.00000000       0.00000000       5.69030148 </v>
    </varray>
    <i name="volume">    184.24929242 </i>
    <varray name="rec_basis" >
     <v>       0.17573761       0.00000000       0.00000000 </v>
     <v>       0.00000000       0.17573761       0.00000000 </v>
     <v>       0.00000000       0.00000000       0.17573761 </v>
    </varray>
   </crystal>
   <varray name="positions" >
    <v>       0.00000000       0.00000000       0.00000000 </v>
    <v>       0.00000000       0.50000000       0.50000000 </v>
    <v>       0.50000000       0.00000000       0.50000000 </v>
    <v>       0.50000000       0.50000000       0.00000000 </v>
    <v>       0.50000000       0.00000000       0.00000000 </v>
    <v>       0.50000000       0.50000000       0.50000000 </v>
    <v>       0.00000000       0.00000000       0.50000000 </v>
    <v>       0.00000000       0.50000000       0.00000000 </v>
   </varray>
  </structure>
  <varray name="forces" >
   <v>       0.00000000       0.00000000       0.00000000 </v>
   <v>      -0.00000000      -0.00000000      -0.00000000 </v>
   <v>      -0.00000000      -0.00000000       0.00000000 </v>
   <v>       0.00000000       0.00000000      -0.00000000 </v>
   <v>       0.00000000       0.00000000      -0.00000000 </v>
   <v>       0.00000000      -0.00000000      -0.00000000 </v>
   <v>       0.00000000       0.00000000       0.00000000 </v>
   <v>       0.00000000       0.00000000      -0.00000000 </v>
  </varray>
  <varray name="stress" >
   <v>      16.14903544      -0.00000000      -0.00000000 </v>
   <v>       0.00000000      16.14903544      -0.00000000 </v>
   <v>       0.00000000       0.00000000      16.14903544 </v>
  </varray>
  <energy>
   <i name="e_fr_energy">    -25.07732506 </i>
   <i name="e_wo_entrp">    -25.07732506 </i>
   <i name="e_0_energy">    -25.07732506 </i>
  </energy>
  <scstep>
   <time name="total">    0.01    0.01</time>
   <energy>
    <i name="e_fr_energy">   -181.08279946 </i>
    <i name="e_wo_entrp">   -181.08279946 </i>
    <i name="e_0_energy">   -181.08279946 </i>
   </energy>
  </scstep>
  <scstep>
   <time name="total">    0.01    0.02</time>
   <energy>
    <i name="e_fr_energy">   -191.78254805 </i>
    <i name="e_wo_entrp">   -191.78254805 </i>
    <i name="e_0_energy">   -191.78254805 </i>
   </energy>
  </scstep>
  <scstep>
   <time name="total">    0.01    0.01</time>
   <energy>
    <i name="e_fr_energy">   -192.21365758 </i>
    <i name="e_wo_entrp">   -192.21365758 </i>
    <i name="e_0_energy">   -192.21365758 </i>
   </energy>
  </scstep>
  <scstep>
   <time name="total">    0.01    0.01</time>
   <energy>
    <i name="e_fr_energy">   -192.23277997 </i>
    <i name="e_wo_entrp">   -192.23277997 </i>
    <i name="e_0_energy">   -192.23277997 </i>
   </energy>
  </scstep>
  <scstep>
   <time name="total">    0.01    0.01</time>
   <energy>
    <i name="e_fr_energy">   -192.23708419 </i>
    <i name="e_wo_entrp">   -192.23708419 </i>
    <i name="e_0_energy">   -192.23708419 </i>
   </energy>
  </scstep>
  <scstep>
   <time name="total">    0.01    0.01</time>
   <energy>
    <i name="e_fr_energy">   -192.23707448 </i>
    <i name="e_wo_entrp">   -192.23707448 </i>
    <i name="e_0_energy">   -192.23707448 </i>
   </energy>
  </scstep>
  <scstep>
   <time name="total">    0.01    0.01</time>
   <energy>
    <i name="e_fr_energy">   -192.23713700 </i>
    <i name="e_wo_entrp">   -192.23713700 </i>
    <i name="e_0_energy">   -192.23713700 </i>
   </energy>
  </scstep>
  <scstep>
   <time name="total">    0.01    0.01</time>
   <energy>
    <i name="e_fr_energy">   -192.23713824 </i>
    <i name="e_wo_entrp">   -192.23713824 </i>
    <i name="e_0_energy">   -192.23713824 </i>
   </energy>
  </scstep>
  <scstep>
   <time name="total">    0.01    0.01</time>
   <energy>
    <i name="e_fr_energy">   -192.23713984 </i>
    <i name="e_wo_entrp">   -192.23713984 </i>
    <i name="e_0_energy">   -192.23713984 </i>
   </energy>
  </scstep>
  <scstep>
   <time name="total">    0.01    0.01</time>
   <energy>
    <i name="e_fr_energy">   -192.23713986 </i>
    <i name="e_wo_entrp">   -192.23713986 </i>
    <i name="e_0_energy">   -192.23713986 </i>
   </energy>
  </scstep>
  <scstep>
   <time name="total">    0.01    0.01</time>
   <energy>
    <i name="e_fr_energy">   -192.23713989 </i>
    <i name="e_wo_entrp">   -192.23713989 </i>
    <i name="e_0_energy">   -192.23713989 </i>
   </energy>
  </scstep>
  <scstep>
   <time name="total">    0.01    0.01</time>
   <energy>
    <i name="e_fr_energy">   -192.23713989 </i>
    <i name="e_wo_entrp">   -192.23713989 </i>
    <i name="e_0_energy">   -192.23713989 </i>
   </energy>
  </scstep>
  <scstep>
   <time name="total">    0.01    0.01</time>
   <energy>
    <i name="e_fr_energy">   -192.23713989 </i>
    <i name="e_wo_entrp">   -192.23713989 </i>
    <i name="e_0_energy">   -192.23713989 </i>
   </energy>
  </scstep>
  <scstep>
   <time name="total">    0.01    0.01</time>
   <energy>
    <i name="e_fr_energy">   -192.23713989 </i>
    <i name="e_wo_entrp">   -192.23713989 </i>
    <i name="e_0_energy">   -192.23713989 </i>
   </energy>
  </scstep>
  <scstep>
   <time name="total">    0.01    0.01</time>
   <energy>
    <i name="e_fr_energy">   -192.23713989 </i>
    <i name="e_wo_entrp">   -192.23713989 </i>
    <i name="e_0_energy">   -192.23713989 </i>
   </energy>
  </scstep>
  <scstep>
   <time name="total">    0.01    0.01</time>
   <energy>
    <i name="e_fr_energy">   -192.23713989 </i>
    <i name="e_wo_entrp">   -192.23713989 </i>
    <i name="e_0_energy">   -192.23713989 </i>
   </energy>
  </scstep>
  <scstep>
   <time name="total">    0.01    0.01</time>
   <energy>
    <i name="e_fr_energy">   -181.27757105 </i>
    <i name="e_wo_entrp">   -181.27757105 </i>
    <i name="e_0_energy">   -181.27757105 </i>
   </energy>
  </scstep>
  <scstep>
   <time name="total">    0.01    0.02</time>
   <energy>
    <i name="e_fr_energy">   -191.78437958 </i>
    <i name="e_wo_entrp">   -191.78437958 </i>
    <i name="e_0_energy">   -191.78437958 </i>
   </energy>
  </scstep>
  <scstep>
   <time name="total">    0.01    0.01</time>
   <energy>
    <i name="e_fr_energy">   -192.21172447 </i>
    <i name="e_wo_entrp">   -192.21172447 </i>
    <i name="e_0_energy">   -192.21172447 </i>
   </energy>
  </scstep>
  <scstep>
   <time name="total">    0.01    0.01</time>
   <energy>
    <i name="e_fr_energy">   -192.23264417 </i>
    <i name="e_wo_entrp">   -192.23264417 </i>
    <i name="e_0_energy">   -192.23264417 </i>
   </energy>
  </scstep>
  <scstep>
   <time name="total">    0.01    0.01</time>
   <energy>
    <i name="e_fr_energy">   -192.23708226 </i>
    <i name="e_wo_entrp">   -192.23708226 </i>
    <i name="e_0_energy">   -192.23708226 </i>
   </energy>
  </scstep>
  <scstep>
   <time name="total">    0.01    0.01</time>
   <energy>
    <i name="e_fr_energy">   -192.23707448 </i>
    <i name="e_wo_entrp">   -192.23707448 </i>
    <i name="e_0_energy">   -192.23707448 </i>
   </energy>
  </scstep>
  <scstep>
   <time name="total">    0.01    0.01</time>
   <energy>
    <i name="e_fr_energy">   -192.23713700 </i>
    <i name="e_wo_entrp">   -192.23713700 </i>
    <i name="e_0_energy">   -192.23713700 </i>
   </energy>
  </scstep>
  <scstep>
   <time name="total">    0.01    0.01</time>
   <energy>
    <i name="e_fr_energy">   -192.23713824 </i>
    <i name="e_wo_entrp">   -192.23713824 </i>
    <i name="e_0_energy">   -192.23713824 </i>
   </energy>
  </scstep>
  <scstep>
   <time name="total">    0.01    0.01</time>
   <energy>
    <i name="e_fr_energy">   -192.23713984 </i>
    <i name="e_wo_entrp">   -192.23713984 </i>
    <i name="e_0_energy">   -192.23713984 </i>
   </energy>
  </scstep>
  <scstep>
   <time name="total">    0.01    0.01</time>
   <energy>
    <i name="e_fr_energy">   -192.23713986 </i>
    <i name="e_wo_entrp">   -192.23713986 </i>
    <i name="e_0_energy">   -192.23713986 </i>
   </energy>
  </scstep>
  <scstep>
   <time name="total">    0.01    0.01</time>
   <energy>
    <i name="e_fr_energy">   -192.23713989 </i>
    <i name="e_wo_entrp">   -192.23713989 </i>
    <i name="e_0_energy">   -192.23713989 </i>
   </energy>
  </scstep>
  <scstep>
   <time name="total">    0.01    0.01</time>
   <energy>
    <i name="e_fr_energy">   -192.23713989 </i>
    <i name="e_wo_entrp">   -192.23713989 </i>
    <i name="e_0_energy">   -192.23713989 </i>
   </energy>
  </scstep>
  <scstep>
   <time name="total">    0.01    0.01</time>
   <energy>
    <i name="e_fr_energy">   -192.23713989 </i>
    <i name="e_wo_entrp">   -192.23713989 </i>
    <i name="e_0_energy">   -192.23713989 </i>
   </energy>
  </scstep>
  <scstep>
   <time name="total">    0.01    0.01</time>
   <energy>
    <i name="e_fr_energy">   -192.23713989 </i>
    <i name="e_wo_entrp">   -192.23713989 </i>
    <i name="e_0_energy">   -192.23713989 </i>
   </energy>
  </scstep>
  <scstep>
   <time name="total">    0.01    0.01</time>
   <energy>
    <i name="e_fr_energy">   -192.23713990 </i>
    <i name="e_wo_entrp">   -192.23713990 </i>
    <i name="e_0_energy">   -192.23713990 </i>
   </energy>
  </scstep>
  <scstep>
   <time name="total">    0.01    0.01</time>
   <energy>
    <i name="e_fr_energy">   -192.23713990 </i>
    <i name="e_wo_entrp">   -192.23713990 </i>
    <i name="e_0_energy">   -192.23713990 </i>
   </energy>
  </scstep>
  <scstep>
   <time name="total">    0.01    0.01</time>
   <energy>
    <i name="e_fr_energy">   -181.24956528 </i>
    <i name="e_wo_entrp">   -181.24956528 </i>
    <i name="e_0_energy">   -181.24956528 </i>
   </energy>
  </scstep>
  <scstep>
   <time name="total">    0.01    0.02</time>
   <energy>
    <i name="e_fr_energy">   -191.79962945 </i>
    <i name="e_wo_entrp">   -191.79962945 </i>
    <i name="e_0_energy">   -191.79962945 </i>
   </energy>
  </scstep>
  <scstep>
   <time name="total">    0.01    0.01</time>
   <energy>
    <i name="e_fr_energy">   -192.21531265 </i>
    <i name="e_wo_entrp">   -192.21531265 </i>
    <i name="e_0_energy">   -192.21531265 </i>
   </energy>
  </scstep>
  <scstep>
   <time name="total">    0.01    0.01</time>
   <energy>
    <i name="e_fr_energy">   -192.23269776 </i>
    <i name="e_wo_entrp">   -192.23269776 </i>
    <i name="e_0_energy">   -192.23269776 </i>
   </energy>
  </scstep>
  <scstep>
   <time name="total">    0.01    0.01</time>
   <energy>
    <i name="e_fr_energy">   -192.23707416 </i>
    <i name="e_wo_entrp">   -192.23707416 </i>
    <i name="e_0_energy">   -192.23707416 </i>
   </energy>
  </scstep>
  <scstep>
   <time name="total">    0.01    0.01</time>
   <energy>
    <i name="e_fr_energy">   -192.23706949 </i>
    <i name="e_wo_entrp">   -192.23706949 </i>
    <i name="e_0_energy">   -192.23706949 </i>
   </energy>
  </scstep>
  <scstep>
   <time name="total">    0.01    0.01</time>
   <energy>
    <i name="e_fr_energy">   -192.23713666 </i>
    <i name="e_wo_entrp">   -192.23713666 </i>
    <i name="e_0_energy">   -192.23713666 </i>
   </energy>
  </scstep>
  <scstep>
   <time name="total">    0.01    0.01</time>
   <energy>
    <i name="e_fr_energy">   -192.23713810 </i>
    <i name="e_wo_entrp">   -192.23713810 </i>
    <i name="e_0_energy">   -192.23713810 </i>
   </energy>
  </scstep>
  <scstep>
   <time name="total">    0.01    0.01</time>
   <energy>
    <i name="e_fr_energy">   -192.23713983 </i>
    <i name="e_wo_entrp">   -192.23713983 </i>
    <i name="e_0_energy">   -192.23713983 </i>
   </energy>
  </scstep>
  <scstep>
   <time name="total">    0.01    0.01</time>
   <energy>
    <i name="e_fr_energy">   -192.23713985 </i>
    <i name="e_wo_entrp">   -192.23713985 </i>
    <i name="e_0_energy">   -192.23713985 </i>
   </energy>
  </scstep>
  <scstep>
   <time name="total">    0.01    0.01</time>
   <energy>
    <i name="e_fr_energy">   -192.23713989 </i>
    <i name="e_wo_entrp">   -192.23713989 </i>
    <i name="e_0_energy">   -192.23713989 </i>
   </energy>
  </scstep>
  <scstep>
   <time name="total">    0.01    0.01</time>
   <energy>
    <i name="e_fr_energy">   -192.23713989 </i>
    <i name="e_wo_entrp">   -192.23713989 </i>
    <i name="e_0_energy">   -192.23713989 </i>
   </energy>
  </scstep>
  <scstep>
   <time name="total">    0.04    0.04</time>
   <energy>
    <i name="e_fr_energy">     -1.44336572 </i>
    <i name="e_wo_entrp">     -1.44336572 </i>
    <i name="e_0_energy">     -1.44336572 </i>
   </energy>
  </scstep>
  <scstep>
   <time name="total">    0.04    0.04</time>
   <energy>
    <i name="e_fr_energy">     -1.50783080 </i>
    <i name="e_wo_entrp">     -1.50783080 </i>
    <i name="e_0_energy">     -1.50783080 </i>
   </energy>
  </scstep>
  <scstep>
   <time name="total">    0.04    0.04</time>
   <energy>
    <i name="e_fr_energy">     -1.50796141 </i>
    <i name="e_wo_entrp">     -1.50796141 </i>
    <i name="e_0_energy">     -1.50796141 </i>
   </energy>
  </scstep>
  <scstep>
   <time name="total">    0.04    0.04</time>
   <energy>
    <i name="e_fr_energy">     -1.50796269 </i>
    <i name="e_wo_entrp">     -1.50796269 </i>
    <i name="e_0_energy">     -1.50796269 </i>
   </energy>
  </scstep>
  <scstep>
   <time name="total">    0.04    0.04</time>
   <energy>
    <i name="e_fr_energy">     -1.50796273 </i>
    <i name="e_wo_entrp">     -1.50796273 </i>
    <i name="e_0_energy">     -1.50796273 </i>
   </energy>
  </scstep>
  <scstep>
   <time name="total">    0.04    0.04</time>
   <energy>
    <i name="e_fr_energy">     -1.50796273 </i>
    <i name="e_wo_entrp">     -1.50796273 </i>
    <i name="e_0_energy">     -1.50796273 </i>
   </energy>
  </scstep>
  <scstep>
   <time name="total">    0.04    0.04</time>
   <energy>
    <i name="e_fr_energy">     -1.46440747 </i>
    <i name="e_wo_entrp">     -1.46440747 </i>
    <i name="e_0_energy">     -1.46440747 </i>
   </energy>
  </scstep>
  <scstep>
   <time name="total">    0.04    0.04</time>
   <energy>
    <i name="e_fr_energy">     -1.50774639 </i>
    <i name="e_wo_entrp">     -1.50774639 </i>
    <i name="e_0_energy">     -1.50774639 </i>
   </energy>
  </scstep>
  <scstep>
   <time name="total">    0.04    0.04</time>
   <energy>
    <i name="e_fr_energy">     -1.50796115 </i>
    <i name="e_wo_entrp">     -1.50796115 </i>
    <i name="e_0_energy">     -1.50796115 </i>
   </energy>
  </scstep>
  <scstep>
   <time name="total">    0.04    0.04</time>
   <energy>
    <i name="e_fr_energy">     -1.50796263 </i>
    <i name="e_wo_entrp">     -1.50796263 </i>
    <i name="e_0_energy">     -1.50796263 </i>
   </energy>
  </scstep>
  <scstep>
   <time name="total">    0.04    0.04</time>
   <energy>
    <i name="e_fr_energy">     -1.50796267 </i>
    <i name="e_wo_entrp">     -1.50796267 </i>
    <i name="e_0_energy">     -1.50796267 </i>
   </energy>
  </scstep>
  <scstep>
   <time name="total">    0.04    0.04</time>
   <energy>
    <i name="e_fr_energy">     -1.50796268 </i>
    <i name="e_wo_entrp">     -1.50796268 </i>
    <i name="e_0_energy">     -1.50796268 </i>
   </energy>
  </scstep>
  <scstep>
   <time name="total">    0.04    0.04</time>
   <energy>
    <i name="e_fr_energy">     -1.44923864 </i>
    <i name="e_wo_entrp">     -1.44923864 </i>
    <i name="e_0_energy">     -1.44923864 </i>
   </energy>
  </scstep>
  <scstep>
   <time name="total">    0.04    0.04</time>
   <energy>
    <i name="e_fr_energy">     -1.50782945 </i>
    <i name="e_wo_entrp">     -1.50782945 </i>
    <i name="e_0_energy">     -1.50782945 </i>
   </energy>
  </scstep>
  <scstep>
   <time name="total">    0.04    0.04</time>
   <energy>
    <i name="e_fr_energy">     -1.50796148 </i>
    <i name="e_wo_entrp">     -1.50796148 </i>
    <i name="e_0_energy">     -1.50796148 </i>
   </energy>
  </scstep>
  <scstep>
   <time name="total">    0.04    0.04</time>
   <energy>
    <i name="e_fr_energy">     -1.50796272 </i>
    <i name="e_wo_entrp">     -1.50796272 </i>
    <i name="e_0_energy">     -1.50796272 </i>
   </energy>
  </scstep>
  <scstep>
   <time name="total">    0.04    0.04</time>
   <energy>
    <i name="e_fr_energy">     -1.50796276 </i>
    <i name="e_wo_entrp">     -1.50796276 </i>
    <i name="e_0_energy">     -1.50796276 </i>
   </energy>
  </scstep>
  <scstep>
   <time name="total">    0.04    0.04</time>
   <energy>
    <i name="e_fr_energy">     -1.50796276 </i>
    <i name="e_wo_entrp">     -1.50796276 </i>
    <i name="e_0_energy">     -1.50796276 </i>
   </energy>
  </scstep>
  <varray name="dielectric_ipa" >
   <v>       3.96197058      -0.00000000      -0.00000000 </v>
   <v>       0.00000000       3.96197058      -0.00000000 </v>
   <v>      -0.00000000      -0.00000000       3.96197058 </v>
  </varray>
  <kpoints>
   <generation param="Gamma">
    <v type="int" name="divisions">       1        1        1 </v>
    <v name="usershift">      0.00000000       0.00000000       0.00000000 </v>
    <v name="genvec1">      1.00000000       0.00000000       0.00000000 </v>
    <v name="genvec2">      0.00000000       1.00000000       0.00000000 </v>
    <v name="genvec3">      0.00000000       0.00000000       1.00000000 </v>
    <v name="shift">      0.00000000       0.00000000       0.00000000 </v>
   </generation>
   <varray name="kpointlist" >
    <v>       0.00000000       0.00000000       0.00000000 </v>
   </varray>
   <varray name="weights" >
    <v>       1.00000000 </v>
   </varray>
  </kpoints>
  <scstep>
   <time name="total">    0.04    0.04</time>
   <energy>
    <i name="e_fr_energy">     -1.44336572 </i>
    <i name="e_wo_entrp">     -1.44336572 </i>
    <i name="e_0_energy">     -1.44336572 </i>
   </energy>
  </scstep>
  <scstep>
   <time name="total">    0.05    0.05</time>
   <energy>
    <i name="e_fr_energy">     -1.50783080 </i>
    <i name="e_wo_entrp">     -1.50783080 </i>
    <i name="e_0_energy">     -1.50783080 </i>
   </energy>
  </scstep>
  <scstep>
   <time name="total">    0.05    0.05</time>
   <energy>
    <i name="e_fr_energy">     -1.42021800 </i>
    <i name="e_wo_entrp">     -1.42021800 </i>
    <i name="e_0_energy">     -1.42021800 </i>
   </energy>
  </scstep>
  <scstep>
   <time name="total">    0.05    0.05</time>
   <energy>
    <i name="e_fr_energy">     -1.47773353 </i>
    <i name="e_wo_entrp">     -1.47773353 </i>
    <i name="e_0_energy">     -1.47773353 </i>
   </energy>
  </scstep>
  <scstep>
   <time name="total">    0.05    0.05</time>
   <energy>
    <i name="e_fr_energy">     -1.53391371 </i>
    <i name="e_wo_entrp">     -1.53391371 </i>
    <i name="e_0_energy">     -1.53391371 </i>
   </energy>
  </scstep>
  <scstep>
   <time name="total">    0.05    0.05</time>
   <energy>
    <i name="e_fr_energy">     -1.53518496 </i>
    <i name="e_wo_entrp">     -1.53518496 </i>
    <i name="e_0_energy">     -1.53518496 </i>
   </energy>
  </scstep>
  <scstep>
   <time name="total">    0.05    0.05</time>
   <energy>
    <i name="e_fr_energy">     -1.54240481 </i>
    <i name="e_wo_entrp">     -1.54240481 </i>
    <i name="e_0_energy">     -1.54240481 </i>
   </energy>
  </scstep>
  <scstep>
   <time name="total">    0.05    0.05</time>
   <energy>
    <i name="e_fr_energy">     -1.54258767 </i>
    <i name="e_wo_entrp">     -1.54258767 </i>
    <i name="e_0_energy">     -1.54258767 </i>
   </energy>
  </scstep>
  <scstep>
   <time name="total">    0.05    0.05</time>
   <energy>
    <i name="e_fr_energy">     -1.54265291 </i>
    <i name="e_wo_entrp">     -1.54265291 </i>
    <i name="e_0_energy">     -1.54265291 </i>
   </energy>
  </scstep>
  <scstep>
   <time name="total">    0.05    0.05</time>
   <energy>
    <i name="e_fr_energy">     -1.54264322 </i>
    <i name="e_wo_entrp">     -1.54264322 </i>
    <i name="e_0_energy">     -1.54264322 </i>
   </energy>
  </scstep>
  <scstep>
   <time name="total">    0.05    0.05</time>
   <energy>
    <i name="e_fr_energy">     -1.54264358 </i>
    <i name="e_wo_entrp">     -1.54264358 </i>
    <i name="e_0_energy">     -1.54264358 </i>
   </energy>
  </scstep>
  <scstep>
   <time name="total">    0.05    0.05</time>
   <energy>
    <i name="e_fr_energy">     -1.54264323 </i>
    <i name="e_wo_entrp">     -1.54264323 </i>
    <i name="e_0_energy">     -1.54264323 </i>
   </energy>
  </scstep>
  <scstep>
   <time name="total">    0.05    0.05</time>
   <energy>
    <i name="e_fr_energy">     -1.54264304 </i>
    <i name="e_wo_entrp">     -1.54264304 </i>
    <i name="e_0_energy">     -1.54264304 </i>
   </energy>
  </scstep>
  <kpoints>
   <generation param="Gamma">
    <v type="int" name="divisions">       1        1        1 </v>
    <v name="usershift">      0.00000000       0.00000000       0.00000000 </v>
    <v name="genvec1">      1.00000000       0.00000000       0.00000000 </v>
    <v name="genvec2">      0.00000000       1.00000000       0.00000000 </v>
    <v name="genvec3">      0.00000000       0.00000000       1.00000000 </v>
    <v name="shift">      0.00000000       0.00000000       0.00000000 </v>
   </generation>
   <varray name="kpointlist" >
    <v>       0.00000000       0.00000000       0.00000000 </v>
   </varray>
   <varray name="weights" >
    <v>       1.00000000 </v>
   </varray>
  </kpoints>
  <scstep>
   <time name="total">    0.04    0.04</time>
   <energy>
    <i name="e_fr_energy">     -1.46440747 </i>
    <i name="e_wo_entrp">     -1.46440747 </i>
    <i name="e_0_energy">     -1.46440747 </i>
   </energy>
  </scstep>
  <scstep>
   <time name="total">    0.05    0.05</time>
   <energy>
    <i name="e_fr_energy">     -1.50774639 </i>
    <i name="e_wo_entrp">     -1.50774639 </i>
    <i name="e_0_energy">     -1.50774639 </i>
   </energy>
  </scstep>
  <scstep>
   <time name="total">    0.05    0.05</time>
   <energy>
    <i name="e_fr_energy">     -1.41982873 </i>
    <i name="e_wo_entrp">     -1.41982873 </i>
    <i name="e_0_energy">     -1.41982873 </i>
   </energy>
  </scstep>
  <scstep>
   <time name="total">    0.05    0.05</time>
   <energy>
    <i name="e_fr_energy">     -1.47791628 </i>
    <i name="e_wo_entrp">     -1.47791628 </i>
    <i name="e_0_energy">     -1.47791628 </i>
   </energy>
  </scstep>
  <scstep>
   <time name="total">    0.05    0.05</time>
   <energy>
    <i name="e_fr_energy">     -1.53426263 </i>
    <i name="e_wo_entrp">     -1.53426263 </i>
    <i name="e_0_energy">     -1.53426263 </i>
   </energy>
  </scstep>
  <scstep>
   <time name="total">    0.05    0.05</time>
   <energy>
    <i name="e_fr_energy">     -1.53511353 </i>
    <i name="e_wo_entrp">     -1.53511353 </i>
    <i name="e_0_energy">     -1.53511353 </i>
   </energy>
  </scstep>
  <scstep>
   <time name="total">    0.05    0.05</time>
   <energy>
    <i name="e_fr_energy">     -1.54241188 </i>
    <i name="e_wo_entrp">     -1.54241188 </i>
    <i name="e_0_energy">     -1.54241188 </i>
   </energy>
  </scstep>
  <scstep>
   <time name="total">    0.05    0.05</time>
   <energy>
    <i name="e_fr_energy">     -1.54257835 </i>
    <i name="e_wo_entrp">     -1.54257835 </i>
    <i name="e_0_energy">     -1.54257835 </i>
   </energy>
  </scstep>
  <scstep>
   <time name="total">    0.05    0.05</time>
   <energy>
    <i name="e_fr_energy">     -1.54265390 </i>
    <i name="e_wo_entrp">     -1.54265390 </i>
    <i name="e_0_energy">     -1.54265390 </i>
   </energy>
  </scstep>
  <scstep>
   <time name="total">    0.05    0.05</time>
   <energy>
    <i name="e_fr_energy">     -1.54264291 </i>
    <i name="e_wo_entrp">     -1.54264291 </i>
    <i name="e_0_energy">     -1.54264291 </i>
   </energy>
  </scstep>
  <scstep>
   <time name="total">    0.05    0.05</time>
   <energy>
    <i name="e_fr_energy">     -1.54264327 </i>
    <i name="e_wo_entrp">     -1.54264327 </i>
    <i name="e_0_energy">     -1.54264327 </i>
   </energy>
  </scstep>
  <scstep>
   <time name="total">    0.05    0.05</time>
   <energy>
    <i name="e_fr_energy">     -1.54264321 </i>
    <i name="e_wo_entrp">     -1.54264321 </i>
    <i name="e_0_energy">     -1.54264321 </i>
   </energy>
  </scstep>
  <scstep>
   <time name="total">    0.05    0.05</time>
   <energy>
    <i name="e_fr_energy">     -1.54264294 </i>
    <i name="e_wo_entrp">     -1.54264294 </i>
    <i name="e_0_energy">     -1.54264294 </i>
   </energy>
  </scstep>
  <kpoints>
   <generation param="Gamma">
    <v type="int" name="divisions">       1        1        1 </v>
    <v name="usershift">      0.00000000       0.00000000       0.00000000 </v>
    <v name="genvec1">      1.00000000       0.00000000       0.00000000 </v>
    <v name="genvec2">      0.00000000       1.00000000       0.00000000 </v>
    <v name="genvec3">      0.00000000       0.00000000       1.00000000 </v>
    <v name="shift">      0.00000000       0.00000000       0.00000000 </v>
   </generation>
   <varray name="kpointlist" >
    <v>       0.00000000       0.00000000       0.00000000 </v>
   </varray>
   <varray name="weights" >
    <v>       1.00000000 </v>
   </varray>
  </kpoints>
  <scstep>
   <time name="total">    0.04    0.04</time>
   <energy>
    <i name="e_fr_energy">     -1.44923864 </i>
    <i name="e_wo_entrp">     -1.44923864 </i>
    <i name="e_0_energy">     -1.44923864 </i>
   </energy>
  </scstep>
  <scstep>
   <time name="total">    0.05    0.05</time>
   <energy>
    <i name="e_fr_energy">     -1.50782945 </i>
    <i name="e_wo_entrp">     -1.50782945 </i>
    <i name="e_0_energy">     -1.50782945 </i>
   </energy>
  </scstep>
  <scstep>
   <time name="total">    0.05    0.05</time>
   <energy>
    <i name="e_fr_energy">     -1.42004118 </i>
    <i name="e_wo_entrp">     -1.42004118 </i>
    <i name="e_0_energy">     -1.42004118 </i>
   </energy>
  </scstep>
  <scstep>
   <time name="total">    0.05    0.05</time>
   <energy>
    <i name="e_fr_energy">     -1.47764349 </i>
    <i name="e_wo_entrp">     -1.47764349 </i>
    <i name="e_0_energy">     -1.47764349 </i>
   </energy>
  </scstep>
  <scstep>
   <time name="total">    0.05    0.05</time>
   <energy>
    <i name="e_fr_energy">     -1.53387069 </i>
    <i name="e_wo_entrp">     -1.53387069 </i>
    <i name="e_0_energy">     -1.53387069 </i>
   </energy>
  </scstep>
  <scstep>
   <time name="total">    0.05    0.05</time>
   <energy>
    <i name="e_fr_energy">     -1.53478640 </i>
    <i name="e_wo_entrp">     -1.53478640 </i>
    <i name="e_0_energy">     -1.53478640 </i>
   </energy>
  </scstep>
  <scstep>
   <time name="total">    0.05    0.05</time>
   <energy>
    <i name="e_fr_energy">     -1.54239024 </i>
    <i name="e_wo_entrp">     -1.54239024 </i>
    <i name="e_0_energy">     -1.54239024 </i>
   </energy>
  </scstep>
  <scstep>
   <time name="total">    0.05    0.05</time>
   <energy>
    <i name="e_fr_energy">     -1.54258586 </i>
    <i name="e_wo_entrp">     -1.54258586 </i>
    <i name="e_0_energy">     -1.54258586 </i>
   </energy>
  </scstep>
  <scstep>
   <time name="total">    0.05    0.05</time>
   <energy>
    <i name="e_fr_energy">     -1.54265169 </i>
    <i name="e_wo_entrp">     -1.54265169 </i>
    <i name="e_0_energy">     -1.54265169 </i>
   </energy>
  </scstep>
  <scstep>
   <time name="total">    0.05    0.05</time>
   <energy>
    <i name="e_fr_energy">     -1.54264352 </i>
    <i name="e_wo_entrp">     -1.54264352 </i>
    <i name="e_0_energy">     -1.54264352 </i>
   </energy>
  </scstep>
  <scstep>
   <time name="total">    0.05    0.05</time>
   <energy>
    <i name="e_fr_energy">     -1.54264354 </i>
    <i name="e_wo_entrp">     -1.54264354 </i>
    <i name="e_0_energy">     -1.54264354 </i>
   </energy>
  </scstep>
  <scstep>
   <time name="total">    0.05    0.05</time>
   <energy>
    <i name="e_fr_energy">     -1.54264329 </i>
    <i name="e_wo_entrp">     -1.54264329 </i>
    <i name="e_0_energy">     -1.54264329 </i>
   </energy>
  </scstep>
  <scstep>
   <time name="total">    0.05    0.05</time>
   <energy>
    <i name="e_fr_energy">     -1.54264306 </i>
    <i name="e_wo_entrp">     -1.54264306 </i>
    <i name="e_0_energy">     -1.54264306 </i>
   </energy>
  </scstep>
  <kpoints>
   <generation param="Gamma">
    <v type="int" name="divisions">       1        1        1 </v>
    <v name="usershift">      0.00000000       0.00000000       0.00000000 </v>
    <v name="genvec1">      1.00000000       0.00000000       0.00000000 </v>
    <v name="genvec2">      0.00000000       1.00000000       0.00000000 </v>
    <v name="genvec3">      0.00000000       0.00000000       1.00000000 </v>
    <v name="shift">      0.00000000       0.00000000       0.00000000 </v>
   </generation>
   <varray name="kpointlist" >
    <v>       0.00000000       0.00000000       0.00000000 </v>
   </varray>
   <varray name="weights" >
    <v>       1.00000000 </v>
   </varray>
  </kpoints>
  <varray name="dielectric_dft" >
   <v>       3.74364141      -0.00000000       0.00000000 </v>
   <v>      -0.00000000       3.74364141      -0.00000000 </v>
   <v>      -0.00000000       0.00000000       3.74364141 </v>
  </varray>
  <varray name="epsilon" >
   <v>       3.74364141      -0.00000000       0.00000000 </v>
   <v>      -0.00000000       3.74364141      -0.00000000 </v>
   <v>      -0.00000000       0.00000000       3.74364141 </v>
  </varray>
  <kpoints>
   <generation param="Gamma">
    <v type="int" name="divisions">       1        1        1 </v>
    <v name="usershift">      0.00000000       0.00000000       0.00000000 </v>
    <v name="genvec1">      1.00000000       0.00000000       0.00000000 </v>
    <v name="genvec2">      0.00000000       1.00000000       0.00000000 </v>
    <v name="genvec3">      0.00000000       0.00000000       1.00000000 </v>
    <v name="shift">      0.00000000       0.00000000       0.00000000 </v>
   </generation>
   <varray name="kpointlist" >
    <v>       0.00000000       0.00000000       0.00000000 </v>
   </varray>
   <varray name="weights" >
    <v>       1.00000000 </v>
   </varray>
  </kpoints>
  <array name="born_charges" >
   <dimension dim="1">ion</dimension>
   <set>
    <v>       1.74040591      -0.00000000      -0.00000000 </v>
    <v>      -0.00000000       1.74040591       0.00000000 </v>
    <v>      -0.00000000      -0.00000000       1.74040591 </v>
   </set>
   <set>
    <v>       1.74040591      -0.00000000      -0.00000000 </v>
    <v>      -0.00000000       1.74040591       0.00000000 </v>
    <v>      -0.00000000      -0.00000000       1.74040591 </v>
   </set>
   <set>
    <v>       1.74040591      -0.00000000      -0.00000000 </v>
    <v>      -0.00000000       1.74040591       0.00000000 </v>
    <v>      -0.00000000      -0.00000000       1.74040591 </v>
   </set>
   <set>
    <v>       1.74040591      -0.00000000       0.00000000 </v>
    <v>      -0.00000000       1.74040591       0.00000000 </v>
    <v>      -0.00000000      -0.00000000       1.74040591 </v>
   </set>
   <set>
    <v>      -1.74040591       0.00000000      -0.00000000 </v>
    <v>       0.00000000      -1.74040591       0.00000000 </v>
    <v>       0.00000000      -0.00000000      -1.74040591 </v>
   </set>
   <set>
    <v>      -1.74040591       0.00000000      -0.00000000 </v>
    <v>       0.00000000      -1.74040591       0.00000000 </v>
    <v>       0.00000000       0.00000000      -1.74040591 </v>
   </set>
   <set>
    <v>      -1.74040591       0.00000000      -0.00000000 </v>
    <v>       0.00000000      -1.74040591      -0.00000000 </v>
    <v>       0.00000000      -0.00000000      -1.74040591 </v>
   </set>
   <set>
    <v>      -1.74040591       0.00000000      -0.00000000 </v>
    <v>       0.00000000      -1.74040591      -0.00000000 </v>
    <v>      -0.00000000      -0.00000000      -1.74040591 </v>
   </set>
  </array>
  <time name="totalsc">    5.58    5.79</time>
  <eigenvalues>
   <array>
    <dimension dim="1">band</dimension>
    <dimension dim="2">kpoint</dimension>
    <dimension dim="3">spin</dimension>
    <field>eigene</field>
    <field>occ</field>
    <set>
     <set comment="spin 1">
      <set comment="kpoint 1">
       <r>  -21.7794    1.0000 </r>
       <r>  -21.7794    1.0000 </r>
       <r>  -21.7794    1.0000 </r>
       <r>  -21.7699    1.0000 </r>
       <r>  -21.7699    1.0000 </r>
       <r>  -21.7699    1.0000 </r>
       <r>  -21.7699    1.0000 </r>
       <r>  -21.7699    1.0000 </r>
       <r>  -21.7699    1.0000 </r>
       <r>  -21.7620    1.0000 </r>
       <r>  -21.7620    1.0000 </r>
       <r>  -21.7620    1.0000 </r>
       <r>  -13.2439    1.0000 </r>
       <r>  -12.8766    1.0000 </r>
       <r>  -12.8766    1.0000 </r>
       <r>  -12.8766    1.0000 </r>
       <r>   -2.2906    1.0000 </r>
       <r>   -2.2906    1.0000 </r>
       <r>   -2.2906    1.0000 </r>
       <r>   -1.2460    1.0000 </r>
       <r>   -1.2460    1.0000 </r>
       <r>   -1.2460    1.0000 </r>
       <r>   -1.2460    1.0000 </r>
       <r>   -1.2460    1.0000 </r>
       <r>   -1.2460    1.0000 </r>
       <r>   -0.6584    1.0000 </r>
       <r>   -0.6584    1.0000 </r>
       <r>   -0.6584    1.0000 </r>
       <r>    4.2114    0.0000 </r>
       <r>    6.6382    0.0000 </r>
       <r>    6.6382    0.0000 </r>
       <r>    6.6382    0.0000 </r>
       <r>    7.3086    0.0000 </r>
       <r>    7.3086    0.0000 </r>
       <r>    7.3086    0.0000 </r>
       <r>   10.3143    0.0000 </r>
       <r>   10.3143    0.0000 </r>
       <r>   10.3143    0.0000 </r>
       <r>   10.4014    0.0000 </r>
       <r>   10.4014    0.0000 </r>
       <r>   10.4014    0.0000 </r>
       <r>   12.4720    0.0000 </r>
       <r>   12.4720    0.0000 </r>
       <r>   13.7530    0.0000 </r>
       <r>   13.7530    0.0000 </r>
       <r>   13.7530    0.0000 </r>
       <r>   13.7530    0.0000 </r>
       <r>   13.7530    0.0000 </r>
      </set>
     </set>
    </set>
   </array>
  </eigenvalues>
  <separator name="orbital magnetization" >
   <v name="MAGDIPOLOUT">      0.00000000      0.00000000      0.00000000</v>
  </separator>
  <dos>
   <i name="efermi">     -0.09647199 </i>
   <total>
    <array>
     <dimension dim="1">gridpoints</dimension>
     <dimension dim="2">spin</dimension>
     <field>energy</field>
     <field>total</field>
     <field>integrated</field>
     <set>
      <set comment="spin 1">
       <r>   -23.5560     0.0000     0.0000 </r>
       <r>   -23.4257     0.0000     0.0000 </r>
       <r>   -23.2954     0.0000     0.0000 </r>
       <r>   -23.1651     0.0000     0.0000 </r>
       <r>   -23.0349     0.0000     0.0000 </r>
       <r>   -22.9046     0.0000     0.0000 </r>
       <r>   -22.7743     0.0000     0.0000 </r>
       <r>   -22.6440     0.0000     0.0000 </r>
       <r>   -22.5137     0.0000     0.0000 </r>
       <r>   -22.3834     0.0000     0.0000 </r>
       <r>   -22.2531     0.0000     0.0000 </r>
       <r>   -22.1229     0.0001     0.0000 </r>
       <r>   -21.9926     0.1601     0.0209 </r>
       <r>   -21.8623    17.7924     2.3390 </r>
       <r>   -21.7320   111.9465    16.9240 </r>
       <r>   -21.6017    52.6953    23.7894 </r>
       <r>   -21.4714     1.6141    23.9997 </r>
       <r>   -21.3412     0.0023    24.0000 </r>
       <r>   -21.2109     0.0000    24.0000 </r>
       <r>   -21.0806     0.0000    24.0000 </r>
       <r>   -20.9503     0.0000    24.0000 </r>
       <r>   -20.8200     0.0000    24.0000 </r>
       <r>   -20.6897     0.0000    24.0000 </r>
       <r>   -20.5594     0.0000    24.0000 </r>
       <r>   -20.4292     0.0000    24.0000 </r>
       <r>   -20.2989     0.0000    24.0000 </r>
       <r>   -20.1686     0.0000    24.0000 </r>
       <r>   -20.0383     0.0000    24.0000 </r>
       <r>   -19.9080     0.0000    24.0000 </r>
       <r>   -19.7777     0.0000    24.0000 </r>
       <r>   -19.6474     0.0000    24.0000 </r>
       <r>   -19.5172     0.0000    24.0000 </r>
       <r>   -19.3869     0.0000    24.0000 </r>
       <r>   -19.2566     0.0000    24.0000 </r>
       <r>   -19.1263     0.0000    24.0000 </r>
       <r>   -18.9960     0.0000    24.0000 </r>
       <r>   -18.8657     0.0000    24.0000 </r>
       <r>   -18.7354     0.0000    24.0000 </r>
       <r>   -18.6052     0.0000    24.0000 </r>
       <r>   -18.4749     0.0000    24.0000 </r>
       <r>   -18.3446     0.0000    24.0000 </r>
       <r>   -18.2143     0.0000    24.0000 </r>
       <r>   -18.0840     0.0000    24.0000 </r>
       <r>   -17.9537     0.0000    24.0000 </r>
       <r>   -17.8234     0.0000    24.0000 </r>
       <r>   -17.6932     0.0000    24.0000 </r>
       <r>   -17.5629     0.0000    24.0000 </r>
       <r>   -17.4326     0.0000    24.0000 </r>
       <r>   -17.3023     0.0000    24.0000 </r>
       <r>   -17.1720     0.0000    24.0000 </r>
       <r>   -17.0417     0.0000    24.0000 </r>
       <r>   -16.9114     0.0000    24.0000 </r>
       <r>   -16.7812     0.0000    24.0000 </r>
       <r>   -16.6509     0.0000    24.0000 </r>
       <r>   -16.5206     0.0000    24.0000 </r>
       <r>   -16.3903     0.0000    24.0000 </r>
       <r>   -16.2600     0.0000    24.0000 </r>
       <r>   -16.1297     0.0000    24.0000 </r>
       <r>   -15.9994     0.0000    24.0000 </r>
       <r>   -15.8692     0.0000    24.0000 </r>
       <r>   -15.7389     0.0000    24.0000 </r>
       <r>   -15.6086     0.0000    24.0000 </r>
       <r>   -15.4783     0.0000    24.0000 </r>
       <r>   -15.3480     0.0000    24.0000 </r>
       <r>   -15.2177     0.0000    24.0000 </r>
       <r>   -15.0874     0.0000    24.0000 </r>
       <r>   -14.9572     0.0000    24.0000 </r>
       <r>   -14.8269     0.0000    24.0000 </r>
       <r>   -14.6966     0.0000    24.0000 </r>
       <r>   -14.5663     0.0000    24.0000 </r>
       <r>   -14.4360     0.0000    24.0000 </r>
       <r>   -14.3057     0.0000    24.0000 </r>
       <r>   -14.1754     0.0000    24.0000 </r>
       <r>   -14.0452     0.0000    24.0000 </r>
       <r>   -13.9149     0.0000    24.0000 </r>
       <r>   -13.7846     0.0000    24.0000 </r>
       <r>   -13.6543     0.0000    24.0000 </r>
       <r>   -13.5240     0.0006    24.0001 </r>
       <r>   -13.3937     0.2610    24.0341 </r>
       <r>   -13.2634     5.7411    24.7821 </r>
       <r>   -13.1332     8.4539    25.8835 </r>
       <r>   -13.0029     2.5980    26.2220 </r>
       <r>   -12.8726    22.3722    29.1367 </r>
       <r>   -12.7423    20.6534    31.8276 </r>
       <r>   -12.6120     1.3193    31.9995 </r>
       <r>   -12.4817     0.0042    32.0000 </r>
       <r>   -12.3515     0.0000    32.0000 </r>
       <r>   -12.2212     0.0000    32.0000 </r>
       <r>   -12.0909     0.0000    32.0000 </r>
       <r>   -11.9606     0.0000    32.0000 </r>
       <r>   -11.8303     0.0000    32.0000 </r>
       <r>   -11.7000     0.0000    32.0000 </r>
       <r>   -11.5697     0.0000    32.0000 </r>
       <r>   -11.4395     0.0000    32.0000 </r>
       <r>   -11.3092     0.0000    32.0000 </r>
       <r>   -11.1789     0.0000    32.0000 </r>
       <r>   -11.0486     0.0000    32.0000 </r>
       <r>   -10.9183     0.0000    32.0000 </r>
       <r>   -10.7880     0.0000    32.0000 </r>
       <r>   -10.6577     0.0000    32.0000 </r>
       <r>   -10.5275     0.0000    32.0000 </r>
       <r>   -10.3972     0.0000    32.0000 </r>
       <r>   -10.2669     0.0000    32.0000 </r>
       <r>   -10.1366     0.0000    32.0000 </r>
       <r>   -10.0063     0.0000    32.0000 </r>
       <r>    -9.8760     0.0000    32.0000 </r>
       <r>    -9.7457     0.0000    32.0000 </r>
       <r>    -9.6155     0.0000    32.0000 </r>
       <r>    -9.4852     0.0000    32.0000 </r>
       <r>    -9.3549     0.0000    32.0000 </r>
       <r>    -9.2246     0.0000    32.0000 </r>
       <r>    -9.0943     0.0000    32.0000 </r>
       <r>    -8.9640     0.0000    32.0000 </r>
       <r>    -8.8337     0.0000    32.0000 </r>
       <r>    -8.7035     0.0000    32.0000 </r>
       <r>    -8.5732     0.0000    32.0000 </r>
       <r>    -8.4429     0.0000    32.0000 </r>
       <r>    -8.3126     0.0000    32.0000 </r>
       <r>    -8.1823     0.0000    32.0000 </r>
       <r>    -8.0520     0.0000    32.0000 </r>
       <r>    -7.9217     0.0000    32.0000 </r>
       <r>    -7.7915     0.0000    32.0000 </r>
       <r>    -7.6612     0.0000    32.0000 </r>
       <r>    -7.5309     0.0000    32.0000 </r>
       <r>    -7.4006     0.0000    32.0000 </r>
       <r>    -7.2703     0.0000    32.0000 </r>
       <r>    -7.1400     0.0000    32.0000 </r>
       <r>    -7.0097     0.0000    32.0000 </r>
       <r>    -6.8795     0.0000    32.0000 </r>
       <r>    -6.7492     0.0000    32.0000 </r>
       <r>    -6.6189     0.0000    32.0000 </r>
       <r>    -6.4886     0.0000    32.0000 </r>
       <r>    -6.3583     0.0000    32.0000 </r>
       <r>    -6.2280     0.0000    32.0000 </r>
       <r>    -6.0977     0.0000    32.0000 </r>
       <r>    -5.9675     0.0000    32.0000 </r>
       <r>    -5.8372     0.0000    32.0000 </r>
       <r>    -5.7069     0.0000    32.0000 </r>
       <r>    -5.5766     0.0000    32.0000 </r>
       <r>    -5.4463     0.0000    32.0000 </r>
       <r>    -5.3160     0.0000    32.0000 </r>
       <r>    -5.1857     0.0000    32.0000 </r>
       <r>    -5.0555     0.0000    32.0000 </r>
       <r>    -4.9252     0.0000    32.0000 </r>
       <r>    -4.7949     0.0000    32.0000 </r>
       <r>    -4.6646     0.0000    32.0000 </r>
       <r>    -4.5343     0.0000    32.0000 </r>
       <r>    -4.4040     0.0000    32.0000 </r>
       <r>    -4.2738     0.0000    32.0000 </r>
       <r>    -4.1435     0.0000    32.0000 </r>
       <r>    -4.0132     0.0000    32.0000 </r>
       <r>    -3.8829     0.0000    32.0000 </r>
       <r>    -3.7526     0.0000    32.0000 </r>
       <r>    -3.6223     0.0000    32.0000 </r>
       <r>    -3.4920     0.0000    32.0000 </r>
       <r>    -3.3618     0.0000    32.0000 </r>
       <r>    -3.2315     0.0000    32.0000 </r>
       <r>    -3.1012     0.0000    32.0000 </r>
       <r>    -2.9709     0.0000    32.0000 </r>
       <r>    -2.8406     0.0000    32.0000 </r>
       <r>    -2.7103     0.0000    32.0000 </r>
       <r>    -2.5800     0.0010    32.0001 </r>
       <r>    -2.4498     0.5600    32.0731 </r>
       <r>    -2.3195    15.1577    34.0479 </r>
       <r>    -2.1892    26.8416    37.5450 </r>
       <r>    -2.0589     3.4682    37.9968 </r>
       <r>    -1.9286     0.0242    38.0000 </r>
       <r>    -1.7983     0.0000    38.0000 </r>
       <r>    -1.6680     0.0000    38.0000 </r>
       <r>    -1.5378     0.0017    38.0002 </r>
       <r>    -1.4075     1.0311    38.1346 </r>
       <r>    -1.2772    29.3410    41.9573 </r>
       <r>    -1.1469    54.3206    49.0345 </r>
       <r>    -1.0166     7.3568    49.9929 </r>
       <r>    -0.8863     0.0833    50.0038 </r>
       <r>    -0.7560     3.8213    50.5016 </r>
       <r>    -0.6258    27.3601    54.0663 </r>
       <r>    -0.4955    14.3533    55.9363 </r>
       <r>    -0.3652     0.4881    55.9999 </r>
       <r>    -0.2349     0.0008    56.0000 </r>
       <r>    -0.1046     0.0000    56.0000 </r>
       <r>     0.0257     0.0000    56.0000 </r>
       <r>     0.1560     0.0000    56.0000 </r>
       <r>     0.2862     0.0000    56.0000 </r>
       <r>     0.4165     0.0000    56.0000 </r>
       <r>     0.5468     0.0000    56.0000 </r>
       <r>     0.6771     0.0000    56.0000 </r>
       <r>     0.8074     0.0000    56.0000 </r>
       <r>     0.9377     0.0000    56.0000 </r>
       <r>     1.0680     0.0000    56.0000 </r>
       <r>     1.1982     0.0000    56.0000 </r>
       <r>     1.3285     0.0000    56.0000 </r>
       <r>     1.4588     0.0000    56.0000 </r>
       <r>     1.5891     0.0000    56.0000 </r>
       <r>     1.7194     0.0000    56.0000 </r>
       <r>     1.8497     0.0000    56.0000 </r>
       <r>     1.9800     0.0000    56.0000 </r>
       <r>     2.1102     0.0000    56.0000 </r>
       <r>     2.2405     0.0000    56.0000 </r>
       <r>     2.3708     0.0000    56.0000 </r>
       <r>     2.5011     0.0000    56.0000 </r>
       <r>     2.6314     0.0000    56.0000 </r>
       <r>     2.7617     0.0000    56.0000 </r>
       <r>     2.8920     0.0000    56.0000 </r>
       <r>     3.0222     0.0000    56.0000 </r>
       <r>     3.1525     0.0000    56.0000 </r>
       <r>     3.2828     0.0000    56.0000 </r>
       <r>     3.4131     0.0000    56.0000 </r>
       <r>     3.5434     0.0000    56.0000 </r>
       <r>     3.6737     0.0000    56.0000 </r>
       <r>     3.8040     0.0000    56.0000 </r>
       <r>     3.9342     0.0007    56.0001 </r>
       <r>     4.0645     0.2894    56.0378 </r>
       <r>     4.1948     5.9621    56.8146 </r>
       <r>     4.3251     8.2709    57.8922 </r>
       <r>     4.4554     0.8234    57.9994 </r>
       <r>     4.5857     0.0043    58.0000 </r>
       <r>     4.7159     0.0000    58.0000 </r>
       <r>     4.8462     0.0000    58.0000 </r>
       <r>     4.9765     0.0000    58.0000 </r>
       <r>     5.1068     0.0000    58.0000 </r>
       <r>     5.2371     0.0000    58.0000 </r>
       <r>     5.3674     0.0000    58.0000 </r>
       <r>     5.4977     0.0000    58.0000 </r>
       <r>     5.6279     0.0000    58.0000 </r>
       <r>     5.7582     0.0000    58.0000 </r>
       <r>     5.8885     0.0000    58.0000 </r>
       <r>     6.0188     0.0000    58.0000 </r>
       <r>     6.1491     0.0000    58.0000 </r>
       <r>     6.2794     0.0000    58.0000 </r>
       <r>     6.4097     0.0283    58.0037 </r>
       <r>     6.5399     3.7671    58.4945 </r>
       <r>     6.6702    27.2860    62.0495 </r>
       <r>     6.8005    14.4721    63.9350 </r>
       <r>     6.9308     0.4983    63.9999 </r>
       <r>     7.0611     0.0115    64.0014 </r>
       <r>     7.1914     2.2332    64.2923 </r>
       <r>     7.3217    24.1651    67.4407 </r>
       <r>     7.4519    18.6630    69.8722 </r>
       <r>     7.5822     0.9783    69.9997 </r>
       <r>     7.7125     0.0025    70.0000 </r>
       <r>     7.8428     0.0000    70.0000 </r>
       <r>     7.9731     0.0000    70.0000 </r>
       <r>     8.1034     0.0000    70.0000 </r>
       <r>     8.2337     0.0000    70.0000 </r>
       <r>     8.3639     0.0000    70.0000 </r>
       <r>     8.4942     0.0000    70.0000 </r>
       <r>     8.6245     0.0000    70.0000 </r>
       <r>     8.7548     0.0000    70.0000 </r>
       <r>     8.8851     0.0000    70.0000 </r>
       <r>     9.0154     0.0000    70.0000 </r>
       <r>     9.1457     0.0000    70.0000 </r>
       <r>     9.2759     0.0000    70.0000 </r>
       <r>     9.4062     0.0000    70.0000 </r>
       <r>     9.5365     0.0000    70.0000 </r>
       <r>     9.6668     0.0000    70.0000 </r>
       <r>     9.7971     0.0000    70.0000 </r>
       <r>     9.9274     0.0000    70.0000 </r>
       <r>    10.0577     0.0066    70.0009 </r>
       <r>    10.1879     1.7536    70.2293 </r>
       <r>    10.3182    27.8000    73.8513 </r>
       <r>    10.4485    49.5884    80.3119 </r>
       <r>    10.5788    12.6740    81.9631 </r>
       <r>    10.7091     0.2826    82.0000 </r>
       <r>    10.8394     0.0003    82.0000 </r>
       <r>    10.9697     0.0000    82.0000 </r>
       <r>    11.0999     0.0000    82.0000 </r>
       <r>    11.2302     0.0000    82.0000 </r>
       <r>    11.3605     0.0000    82.0000 </r>
       <r>    11.4908     0.0000    82.0000 </r>
       <r>    11.6211     0.0000    82.0000 </r>
       <r>    11.7514     0.0000    82.0000 </r>
       <r>    11.8817     0.0000    82.0000 </r>
       <r>    12.0119     0.0000    82.0000 </r>
       <r>    12.1422     0.0000    82.0000 </r>
       <r>    12.2725     0.0733    82.0096 </r>
       <r>    12.4028     4.9530    82.6548 </r>
       <r>    12.5331    19.7190    85.2239 </r>
       <r>    12.6634     5.8519    85.9864 </r>
       <r>    12.7936     0.1045    86.0000 </r>
       <r>    12.9239     0.0001    86.0000 </r>
       <r>    13.0542     0.0000    86.0000 </r>
       <r>    13.1845     0.0000    86.0000 </r>
       <r>    13.3148     0.0000    86.0000 </r>
       <r>    13.4451     0.0005    86.0001 </r>
       <r>    13.5754     0.4595    86.0599 </r>
       <r>    13.7056    18.8384    88.5143 </r>
       <r>    13.8359    48.2076    94.7951 </r>
       <r>    13.9662     9.1499    95.9872 </r>
       <r>    14.0965     0.0986    96.0000 </r>
       <r>    14.2268     0.0000    96.0000 </r>
       <r>    14.3571     0.0000    96.0000 </r>
       <r>    14.4874     0.0000    96.0000 </r>
       <r>    14.6176     0.0000    96.0000 </r>
       <r>    14.7479     0.0000    96.0000 </r>
       <r>    14.8782     0.0000    96.0000 </r>
       <r>    15.0085     0.0000    96.0000 </r>
       <r>    15.1388     0.0000    96.0000 </r>
       <r>    15.2691     0.0000    96.0000 </r>
       <r>    15.3994     0.0000    96.0000 </r>
       <r>    15.5296     0.0000    96.0000 </r>
      </set>
     </set>
    </array>
   </total>
  </dos>
 </calculation>
 <structure name="finalpos" >
  <crystal>
   <varray name="basis" >
    <v>       5.69030148       0.00000000       0.00000000 </v>
    <v>       0.00000000       5.69030148       0.00000000 </v>
    <v>       0.00000000       0.00000000       5.69030148 </v>
   </varray>
   <i name="volume">    184.24929242 </i>
   <varray name="rec_basis" >
    <v>       0.17573761       0.00000000       0.00000000 </v>
    <v>       0.00000000       0.17573761       0.00000000 </v>
    <v>       0.00000000       0.00000000       0.17573761 </v>
   </varray>
  </crystal>
  <varray name="positions" >
   <v>       0.00000000       0.00000000       0.00000000 </v>
   <v>       0.00000000       0.50000000       0.50000000 </v>
   <v>       0.50000000       0.00000000       0.50000000 </v>
   <v>       0.50000000       0.50000000       0.00000000 </v>
   <v>       0.50000000       0.00000000       0.00000000 </v>
   <v>       0.50000000       0.50000000       0.50000000 </v>
   <v>       0.00000000       0.00000000       0.50000000 </v>
   <v>       0.00000000       0.50000000       0.00000000 </v>
  </varray>
 </structure>
</modeling>
