[Molden Format]
[Atoms] AU
C          1     6         0.0000000000         0.0000000000         0.0000000000
O_1        2     8         0.0000000000         0.0000000000         2.1960507299
O_2        3     8         0.0000000000         0.0000000000        -2.1960507299
[GTO]
    1 0
 s  11 1.00
   0.4563240000000000E+04   0.1966650000000000E-02
   0.6820240000000000E+03   0.1523060000000000E-01
   0.1549730000000000E+03   0.7612690000000000E-01
   0.4445530000000000E+02   0.2608010000000000E+00
   0.1302900000000000E+02   0.6164620000000000E+00
   0.1827730000000000E+01   0.2210060000000000E+00
   0.2096420000000000E+02   0.0000000000000000E+00
   0.4803310000000000E+01   0.0000000000000000E+00
   0.1459330000000000E+01   0.0000000000000000E+00
   0.4834560000000000E+00   0.0000000000000000E+00
   0.1455850000000000E+00   0.0000000000000000E+00
 s  11 1.00
   0.4563240000000000E+04   0.0000000000000000E+00
   0.6820240000000000E+03   0.0000000000000000E+00
   0.1549730000000000E+03   0.0000000000000000E+00
   0.4445530000000000E+02   0.0000000000000000E+00
   0.1302900000000000E+02   0.0000000000000000E+00
   0.1827730000000000E+01   0.0000000000000000E+00
   0.2096420000000000E+02   0.1146600000000000E+00
   0.4803310000000000E+01   0.9199990000000000E+00
   0.1459330000000000E+01  -0.3030680000000000E-02
   0.4834560000000000E+00   0.0000000000000000E+00
   0.1455850000000000E+00   0.0000000000000000E+00
 s  11 1.00
   0.4563240000000000E+04   0.0000000000000000E+00
   0.6820240000000000E+03   0.0000000000000000E+00
   0.1549730000000000E+03   0.0000000000000000E+00
   0.4445530000000000E+02   0.0000000000000000E+00
   0.1302900000000000E+02   0.0000000000000000E+00
   0.1827730000000000E+01   0.0000000000000000E+00
   0.2096420000000000E+02   0.0000000000000000E+00
   0.4803310000000000E+01   0.0000000000000000E+00
   0.1459330000000000E+01   0.0000000000000000E+00
   0.4834560000000000E+00   0.1000000000000000E+01
   0.1455850000000000E+00   0.0000000000000000E+00
 s  11 1.00
   0.4563240000000000E+04   0.0000000000000000E+00
   0.6820240000000000E+03   0.0000000000000000E+00
   0.1549730000000000E+03   0.0000000000000000E+00
   0.4445530000000000E+02   0.0000000000000000E+00
   0.1302900000000000E+02   0.0000000000000000E+00
   0.1827730000000000E+01   0.0000000000000000E+00
   0.2096420000000000E+02   0.0000000000000000E+00
   0.4803310000000000E+01   0.0000000000000000E+00
   0.1459330000000000E+01   0.0000000000000000E+00
   0.4834560000000000E+00   0.0000000000000000E+00
   0.1455850000000000E+00   0.1000000000000000E+01
 p   5 1.00
   0.2096420000000000E+02   0.4024870000000000E-01
   0.4803310000000000E+01   0.2375940000000000E+00
   0.1459330000000000E+01   0.8158540000000000E+00
   0.4834560000000000E+00   0.0000000000000000E+00
   0.1455850000000000E+00   0.0000000000000000E+00
 p   5 1.00
   0.2096420000000000E+02   0.0000000000000000E+00
   0.4803310000000000E+01   0.0000000000000000E+00
   0.1459330000000000E+01   0.0000000000000000E+00
   0.4834560000000000E+00   0.1000000000000000E+01
   0.1455850000000000E+00   0.0000000000000000E+00
 p   5 1.00
   0.2096420000000000E+02   0.0000000000000000E+00
   0.4803310000000000E+01   0.0000000000000000E+00
   0.1459330000000000E+01   0.0000000000000000E+00
   0.4834560000000000E+00   0.0000000000000000E+00
   0.1455850000000000E+00   0.1000000000000000E+01

    2 0
 s  11 1.00
   0.8588500000000000E+04   0.1895150000000000E-02
   0.1297230000000000E+04   0.1438590000000000E-01
   0.2992960000000000E+03   0.7073200000000000E-01
   0.8737710000000000E+02   0.2400010000000000E+00
   0.2567890000000000E+02   0.5947970000000000E+00
   0.3740040000000000E+01   0.2808020000000000E+00
   0.4211750000000000E+02   0.0000000000000000E+00
   0.9628370000000000E+01   0.0000000000000000E+00
   0.2853320000000000E+01   0.0000000000000000E+00
   0.9056610000000000E+00   0.0000000000000000E+00
   0.2556110000000000E+00   0.0000000000000000E+00
 s  11 1.00
   0.8588500000000000E+04   0.0000000000000000E+00
   0.1297230000000000E+04   0.0000000000000000E+00
   0.2992960000000000E+03   0.0000000000000000E+00
   0.8737710000000000E+02   0.0000000000000000E+00
   0.2567890000000000E+02   0.0000000000000000E+00
   0.3740040000000000E+01   0.0000000000000000E+00
   0.4211750000000000E+02   0.1138890000000000E+00
   0.9628370000000000E+01   0.9208110000000000E+00
   0.2853320000000000E+01  -0.3274470000000000E-02
   0.9056610000000000E+00   0.0000000000000000E+00
   0.2556110000000000E+00   0.0000000000000000E+00
 s  11 1.00
   0.8588500000000000E+04   0.0000000000000000E+00
   0.1297230000000000E+04   0.0000000000000000E+00
   0.2992960000000000E+03   0.0000000000000000E+00
   0.8737710000000000E+02   0.0000000000000000E+00
   0.2567890000000000E+02   0.0000000000000000E+00
   0.3740040000000000E+01   0.0000000000000000E+00
   0.4211750000000000E+02   0.0000000000000000E+00
   0.9628370000000000E+01   0.0000000000000000E+00
   0.2853320000000000E+01   0.0000000000000000E+00
   0.9056610000000000E+00   0.1000000000000000E+01
   0.2556110000000000E+00   0.0000000000000000E+00
 s  11 1.00
   0.8588500000000000E+04   0.0000000000000000E+00
   0.1297230000000000E+04   0.0000000000000000E+00
   0.2992960000000000E+03   0.0000000000000000E+00
   0.8737710000000000E+02   0.0000000000000000E+00
   0.2567890000000000E+02   0.0000000000000000E+00
   0.3740040000000000E+01   0.0000000000000000E+00
   0.4211750000000000E+02   0.0000000000000000E+00
   0.9628370000000000E+01   0.0000000000000000E+00
   0.2853320000000000E+01   0.0000000000000000E+00
   0.9056610000000000E+00   0.0000000000000000E+00
   0.2556110000000000E+00   0.1000000000000000E+01
 p   5 1.00
   0.4211750000000000E+02   0.3651140000000000E-01
   0.9628370000000000E+01   0.2371530000000000E+00
   0.2853320000000000E+01   0.8197020000000000E+00
   0.9056610000000000E+00   0.0000000000000000E+00
   0.2556110000000000E+00   0.0000000000000000E+00
 p   5 1.00
   0.4211750000000000E+02   0.0000000000000000E+00
   0.9628370000000000E+01   0.0000000000000000E+00
   0.2853320000000000E+01   0.0000000000000000E+00
   0.9056610000000000E+00   0.1000000000000000E+01
   0.2556110000000000E+00   0.0000000000000000E+00
 p   5 1.00
   0.4211750000000000E+02   0.0000000000000000E+00
   0.9628370000000000E+01   0.0000000000000000E+00
   0.2853320000000000E+01   0.0000000000000000E+00
   0.9056610000000000E+00   0.0000000000000000E+00
   0.2556110000000000E+00   0.1000000000000000E+01

    3 0
 s  11 1.00
   0.8588500000000000E+04   0.1895150000000000E-02
   0.1297230000000000E+04   0.1438590000000000E-01
   0.2992960000000000E+03   0.7073200000000000E-01
   0.8737710000000000E+02   0.2400010000000000E+00
   0.2567890000000000E+02   0.5947970000000000E+00
   0.3740040000000000E+01   0.2808020000000000E+00
   0.4211750000000000E+02   0.0000000000000000E+00
   0.9628370000000000E+01   0.0000000000000000E+00
   0.2853320000000000E+01   0.0000000000000000E+00
   0.9056610000000000E+00   0.0000000000000000E+00
   0.2556110000000000E+00   0.0000000000000000E+00
 s  11 1.00
   0.8588500000000000E+04   0.0000000000000000E+00
   0.1297230000000000E+04   0.0000000000000000E+00
   0.2992960000000000E+03   0.0000000000000000E+00
   0.8737710000000000E+02   0.0000000000000000E+00
   0.2567890000000000E+02   0.0000000000000000E+00
   0.3740040000000000E+01   0.0000000000000000E+00
   0.4211750000000000E+02   0.1138890000000000E+00
   0.9628370000000000E+01   0.9208110000000000E+00
   0.2853320000000000E+01  -0.3274470000000000E-02
   0.9056610000000000E+00   0.0000000000000000E+00
   0.2556110000000000E+00   0.0000000000000000E+00
 s  11 1.00
   0.8588500000000000E+04   0.0000000000000000E+00
   0.1297230000000000E+04   0.0000000000000000E+00
   0.2992960000000000E+03   0.0000000000000000E+00
   0.8737710000000000E+02   0.0000000000000000E+00
   0.2567890000000000E+02   0.0000000000000000E+00
   0.3740040000000000E+01   0.0000000000000000E+00
   0.4211750000000000E+02   0.0000000000000000E+00
   0.9628370000000000E+01   0.0000000000000000E+00
   0.2853320000000000E+01   0.0000000000000000E+00
   0.9056610000000000E+00   0.1000000000000000E+01
   0.2556110000000000E+00   0.0000000000000000E+00
 s  11 1.00
   0.8588500000000000E+04   0.0000000000000000E+00
   0.1297230000000000E+04   0.0000000000000000E+00
   0.2992960000000000E+03   0.0000000000000000E+00
   0.8737710000000000E+02   0.0000000000000000E+00
   0.2567890000000000E+02   0.0000000000000000E+00
   0.3740040000000000E+01   0.0000000000000000E+00
   0.4211750000000000E+02   0.0000000000000000E+00
   0.9628370000000000E+01   0.0000000000000000E+00
   0.2853320000000000E+01   0.0000000000000000E+00
   0.9056610000000000E+00   0.0000000000000000E+00
   0.2556110000000000E+00   0.1000000000000000E+01
 p   5 1.00
   0.4211750000000000E+02   0.3651140000000000E-01
   0.9628370000000000E+01   0.2371530000000000E+00
   0.2853320000000000E+01   0.8197020000000000E+00
   0.9056610000000000E+00   0.0000000000000000E+00
   0.2556110000000000E+00   0.0000000000000000E+00
 p   5 1.00
   0.4211750000000000E+02   0.0000000000000000E+00
   0.9628370000000000E+01   0.0000000000000000E+00
   0.2853320000000000E+01   0.0000000000000000E+00
   0.9056610000000000E+00   0.1000000000000000E+01
   0.2556110000000000E+00   0.0000000000000000E+00
 p   5 1.00
   0.4211750000000000E+02   0.0000000000000000E+00
   0.9628370000000000E+01   0.0000000000000000E+00
   0.2853320000000000E+01   0.0000000000000000E+00
   0.9056610000000000E+00   0.0000000000000000E+00
   0.2556110000000000E+00   0.1000000000000000E+01

[SCFCONV]
scf-first  1  THROUGH   9
     -186.9920296686
     -187.5222038122
     -187.5581593054
     -187.5659172088
     -187.5661566719
     -187.5661707346
     -187.5661721277
     -187.5661721547
     -187.5661721552
[TITLE]
*** Dalton interface to Molden, wave function type : HF            31Dec24   22:
[5D7F]
[9G]
[MO]
Sym= Ag
Ene=  -20.6704
Spin= Alpha
Occup=  2.0000
    1   0.8479009313257986E-005
    2  -0.1181541677511844E-003
    3   0.5235994555979297E-003
    4   0.2262030706006412E-003
    5   0.0000000000000000E+000
    6   0.0000000000000000E+000
    7   0.0000000000000000E+000
    8   0.0000000000000000E+000
    9   0.0000000000000000E+000
   10   0.0000000000000000E+000
   11   0.0000000000000000E+000
   12   0.0000000000000000E+000
   13   0.0000000000000000E+000
   14   0.3899574234517441E+000
   15   0.3335415497055553E+000
   16   0.3817462286161954E-002
   17  -0.3412097613653880E-003
   18   0.0000000000000000E+000
   19   0.0000000000000000E+000
   20  -0.2107558852162383E-002
   21   0.0000000000000000E+000
   22   0.0000000000000000E+000
   23   0.7069049293577010E-003
   24   0.0000000000000000E+000
   25   0.0000000000000000E+000
   26  -0.9487686611186603E-004
   27   0.3899574234517441E+000
   28   0.3335415497055553E+000
   29   0.3817462286161954E-002
   30  -0.3412097613653880E-003
   31   0.0000000000000000E+000
   32   0.0000000000000000E+000
   33   0.2107558852162383E-002
   34   0.0000000000000000E+000
   35   0.0000000000000000E+000
   36  -0.7069049293577010E-003
   37   0.0000000000000000E+000
   38   0.0000000000000000E+000
   39   0.9487686611186603E-004
Sym= Ag
Ene=  -11.5062
Spin= Alpha
Occup=  2.0000
    1   0.5632125930427804E+000
    2   0.4667477908437935E+000
    3   0.4214904083806910E-002
    4  -0.1599979261786720E-003
    5   0.0000000000000000E+000
    6   0.0000000000000000E+000
    7   0.0000000000000000E+000
    8   0.0000000000000000E+000
    9   0.0000000000000000E+000
   10   0.0000000000000000E+000
   11   0.0000000000000000E+000
   12   0.0000000000000000E+000
   13   0.0000000000000000E+000
   14  -0.2533598279854547E-003
   15  -0.3981730234497873E-003
   16   0.9261708406825236E-003
   17  -0.1728351398026625E-003
   18   0.0000000000000000E+000
   19   0.0000000000000000E+000
   20  -0.2252838593762773E-003
   21   0.0000000000000000E+000
   22   0.0000000000000000E+000
   23  -0.1051884395016489E-002
   24   0.0000000000000000E+000
   25   0.0000000000000000E+000
   26   0.4555447954959292E-003
   27  -0.2533598279854547E-003
   28  -0.3981730234497873E-003
   29   0.9261708406825236E-003
   30  -0.1728351398026625E-003
   31   0.0000000000000000E+000
   32   0.0000000000000000E+000
   33   0.2252838593762773E-003
   34   0.0000000000000000E+000
   35   0.0000000000000000E+000
   36   0.1051884395016489E-002
   37   0.0000000000000000E+000
   38   0.0000000000000000E+000
   39  -0.4555447954959292E-003
Sym= Ag
Ene=   -1.5658
Spin= Alpha
Occup=  2.0000
    1  -0.8284766117332763E-001
    2  -0.1330795820839433E+000
    3   0.3585590928744086E+000
    4  -0.1275922496465484E-001
    5   0.0000000000000000E+000
    6   0.0000000000000000E+000
    7   0.0000000000000000E+000
    8   0.0000000000000000E+000
    9   0.0000000000000000E+000
   10   0.0000000000000000E+000
   11   0.0000000000000000E+000
   12   0.0000000000000000E+000
   13   0.0000000000000000E+000
   14  -0.7189449013909323E-001
   15  -0.1207375143033042E+000
   16   0.3484464798319741E+000
   17   0.2398269792624662E+000
   18   0.0000000000000000E+000
   19   0.0000000000000000E+000
   20  -0.4942450968055086E-001
   21   0.0000000000000000E+000
   22   0.0000000000000000E+000
   23  -0.1016393519665972E+000
   24   0.0000000000000000E+000
   25   0.0000000000000000E+000
   26  -0.3212317244739857E-001
   27  -0.7189449013909323E-001
   28  -0.1207375143033042E+000
   29   0.3484464798319741E+000
   30   0.2398269792624662E+000
   31   0.0000000000000000E+000
   32   0.0000000000000000E+000
   33   0.4942450968055086E-001
   34   0.0000000000000000E+000
   35   0.0000000000000000E+000
   36   0.1016393519665972E+000
   37   0.0000000000000000E+000
   38   0.0000000000000000E+000
   39   0.3212317244739857E-001
Sym= Ag
Ene=   -0.7966
Spin= Alpha
Occup=  2.0000
    1   0.7505807082419913E-001
    2   0.1305449618798641E+000
    3  -0.4307917315786418E+000
    4  -0.1338509898781813E+000
    5   0.0000000000000000E+000
    6   0.0000000000000000E+000
    7   0.0000000000000000E+000
    8   0.0000000000000000E+000
    9   0.0000000000000000E+000
   10   0.0000000000000000E+000
   11   0.0000000000000000E+000
   12   0.0000000000000000E+000
   13   0.0000000000000000E+000
   14  -0.4898989624272439E-001
   15  -0.8267732950835241E-001
   16   0.2448997139495967E+000
   17   0.3202229601760306E+000
   18   0.0000000000000000E+000
   19   0.0000000000000000E+000
   20   0.1474679267358959E+000
   21   0.0000000000000000E+000
   22   0.0000000000000000E+000
   23   0.2228468252613479E+000
   24   0.0000000000000000E+000
   25   0.0000000000000000E+000
   26   0.1344885313545913E+000
   27  -0.4898989624272439E-001
   28  -0.8267732950835241E-001
   29   0.2448997139495967E+000
   30   0.3202229601760306E+000
   31   0.0000000000000000E+000
   32   0.0000000000000000E+000
   33  -0.1474679267358959E+000
   34   0.0000000000000000E+000
   35   0.0000000000000000E+000
   36  -0.2228468252613479E+000
   37   0.0000000000000000E+000
   38   0.0000000000000000E+000
   39  -0.1344885313545913E+000
Sym= Ag
Ene=    0.2032
Spin= Alpha
Occup=  0.0000
    1  -0.2099737147966019E-001
    2  -0.3454383432069507E-001
    3  -0.5408292426110775E-001
    4   0.2381506455593358E+001
    5   0.0000000000000000E+000
    6   0.0000000000000000E+000
    7   0.0000000000000000E+000
    8   0.0000000000000000E+000
    9   0.0000000000000000E+000
   10   0.0000000000000000E+000
   11   0.0000000000000000E+000
   12   0.0000000000000000E+000
   13   0.0000000000000000E+000
   14   0.3555824287392504E-001
   15   0.6124697538226858E-001
   16  -0.1684332138290233E+000
   17  -0.9356701332097747E+000
   18   0.0000000000000000E+000
   19   0.0000000000000000E+000
   20   0.9961416289057526E-001
   21   0.0000000000000000E+000
   22   0.0000000000000000E+000
   23   0.1695330005193318E+000
   24   0.0000000000000000E+000
   25   0.0000000000000000E+000
   26   0.5008034996414098E+000
   27   0.3555824287392504E-001
   28   0.6124697538226858E-001
   29  -0.1684332138290233E+000
   30  -0.9356701332097747E+000
   31   0.0000000000000000E+000
   32   0.0000000000000000E+000
   33  -0.9961416289057526E-001
   34   0.0000000000000000E+000
   35   0.0000000000000000E+000
   36  -0.1695330005193318E+000
   37   0.0000000000000000E+000
   38   0.0000000000000000E+000
   39  -0.5008034996414098E+000
Sym= Ag
Ene=    0.7455
Spin= Alpha
Occup=  0.0000
    1   0.1364813550413893E+000
    2   0.2958765174278091E+000
    3  -0.1852627641280785E+001
    4   0.1105231162653906E+001
    5   0.0000000000000000E+000
    6   0.0000000000000000E+000
    7   0.0000000000000000E+000
    8   0.0000000000000000E+000
    9   0.0000000000000000E+000
   10   0.0000000000000000E+000
   11   0.0000000000000000E+000
   12   0.0000000000000000E+000
   13   0.0000000000000000E+000
   14  -0.2355739998765566E-001
   15  -0.4449648347420339E-001
   16   0.1887388953637917E+000
   17  -0.1018824704216515E+000
   18   0.0000000000000000E+000
   19   0.0000000000000000E+000
   20  -0.1380881444595727E+000
   21   0.0000000000000000E+000
   22   0.0000000000000000E+000
   23  -0.2929628552469021E+000
   24   0.0000000000000000E+000
   25   0.0000000000000000E+000
   26  -0.2312146130343971E+000
   27  -0.2355739998765566E-001
   28  -0.4449648347420339E-001
   29   0.1887388953637917E+000
   30  -0.1018824704216515E+000
   31   0.0000000000000000E+000
   32   0.0000000000000000E+000
   33   0.1380881444595727E+000
   34   0.0000000000000000E+000
   35   0.0000000000000000E+000
   36   0.2929628552469021E+000
   37   0.0000000000000000E+000
   38   0.0000000000000000E+000
   39   0.2312146130343971E+000
Sym= Ag
Ene=    0.9230
Spin= Alpha
Occup=  0.0000
    1  -0.5772024322511844E-002
    2  -0.2238156706726012E-001
    3   0.7617730684791391E+000
    4   0.1023540374073905E+001
    5   0.0000000000000000E+000
    6   0.0000000000000000E+000
    7   0.0000000000000000E+000
    8   0.0000000000000000E+000
    9   0.0000000000000000E+000
   10   0.0000000000000000E+000
   11   0.0000000000000000E+000
   12   0.0000000000000000E+000
   13   0.0000000000000000E+000
   14   0.2154947255157857E-001
   15   0.3732512497430310E-001
   16  -0.1139805667150826E+000
   17  -0.5088557743128495E+000
   18   0.0000000000000000E+000
   19   0.0000000000000000E+000
   20  -0.1303447062750459E+000
   21   0.0000000000000000E+000
   22   0.0000000000000000E+000
   23  -0.5523661825180085E+000
   24   0.0000000000000000E+000
   25   0.0000000000000000E+000
   26   0.1237479073406304E+001
   27   0.2154947255157857E-001
   28   0.3732512497430310E-001
   29  -0.1139805667150826E+000
   30  -0.5088557743128495E+000
   31   0.0000000000000000E+000
   32   0.0000000000000000E+000
   33   0.1303447062750459E+000
   34   0.0000000000000000E+000
   35   0.0000000000000000E+000
   36   0.5523661825180085E+000
   37   0.0000000000000000E+000
   38   0.0000000000000000E+000
   39  -0.1237479073406304E+001
Sym= Ag
Ene=    1.6618
Spin= Alpha
Occup=  0.0000
    1  -0.1080986757018223E-001
    2  -0.4867256896664051E-001
    3   0.9397272743416731E+000
    4   0.2875402824662162E+001
    5   0.0000000000000000E+000
    6   0.0000000000000000E+000
    7   0.0000000000000000E+000
    8   0.0000000000000000E+000
    9   0.0000000000000000E+000
   10   0.0000000000000000E+000
   11   0.0000000000000000E+000
   12   0.0000000000000000E+000
   13   0.0000000000000000E+000
   14  -0.7907131632922851E-001
   15  -0.1725734181063173E+000
   16   0.1426225805972521E+001
   17  -0.2876951792727380E+001
   18   0.0000000000000000E+000
   19   0.0000000000000000E+000
   20  -0.8626599976506010E-003
   21   0.0000000000000000E+000
   22   0.0000000000000000E+000
   23  -0.1140160051062717E+000
   24   0.0000000000000000E+000
   25   0.0000000000000000E+000
   26   0.1184631726555493E+001
   27  -0.7907131632922851E-001
   28  -0.1725734181063173E+000
   29   0.1426225805972521E+001
   30  -0.2876951792727380E+001
   31   0.0000000000000000E+000
   32   0.0000000000000000E+000
   33   0.8626599976506010E-003
   34   0.0000000000000000E+000
   35   0.0000000000000000E+000
   36   0.1140160051062717E+000
   37   0.0000000000000000E+000
   38   0.0000000000000000E+000
   39  -0.1184631726555493E+001
Sym= Ag
Ene=    5.2657
Spin= Alpha
Occup=  0.0000
    1   0.7012921324064619E-002
    2   0.5145005440033323E-001
    3  -0.1627953015034434E+000
    4   0.4743047506513988E+000
    5   0.0000000000000000E+000
    6   0.0000000000000000E+000
    7   0.0000000000000000E+000
    8   0.0000000000000000E+000
    9   0.0000000000000000E+000
   10   0.0000000000000000E+000
   11   0.0000000000000000E+000
   12   0.0000000000000000E+000
   13   0.0000000000000000E+000
   14  -0.2024177892098595E-002
   15  -0.7305382064472614E-002
   16   0.6987739842479516E-001
   17  -0.2121191244122845E+000
   18   0.0000000000000000E+000
   19   0.0000000000000000E+000
   20   0.9077794534066876E+000
   21   0.0000000000000000E+000
   22   0.0000000000000000E+000
   23  -0.1005275449291373E+001
   24   0.0000000000000000E+000
   25   0.0000000000000000E+000
   26   0.4332789909201510E+000
   27  -0.2024177892098595E-002
   28  -0.7305382064472614E-002
   29   0.6987739842479516E-001
   30  -0.2121191244122845E+000
   31   0.0000000000000000E+000
   32   0.0000000000000000E+000
   33  -0.9077794534066876E+000
   34   0.0000000000000000E+000
   35   0.0000000000000000E+000
   36   0.1005275449291373E+001
   37   0.0000000000000000E+000
   38   0.0000000000000000E+000
   39  -0.4332789909201510E+000
Sym= Ag
Ene=   24.2723
Spin= Alpha
Occup=  0.0000
    1   0.2028001589492662E+001
    2  -0.2174407394638991E+001
    3   0.4629823737972459E+000
    4  -0.7733704147049628E-001
    5   0.0000000000000000E+000
    6   0.0000000000000000E+000
    7   0.0000000000000000E+000
    8   0.0000000000000000E+000
    9   0.0000000000000000E+000
   10   0.0000000000000000E+000
   11   0.0000000000000000E+000
   12   0.0000000000000000E+000
   13   0.0000000000000000E+000
   14   0.6586756396380732E-002
   15  -0.8678239473127850E-003
   16   0.5607404883367280E-003
   17  -0.8680190105226381E-001
   18   0.0000000000000000E+000
   19   0.0000000000000000E+000
   20  -0.1564793219024779E-001
   21   0.0000000000000000E+000
   22   0.0000000000000000E+000
   23   0.5575517144969765E-001
   24   0.0000000000000000E+000
   25   0.0000000000000000E+000
   26   0.7860104205666897E-001
   27   0.6586756396380732E-002
   28  -0.8678239473127850E-003
   29   0.5607404883367280E-003
   30  -0.8680190105226381E-001
   31   0.0000000000000000E+000
   32   0.0000000000000000E+000
   33   0.1564793219024779E-001
   34   0.0000000000000000E+000
   35   0.0000000000000000E+000
   36  -0.5575517144969765E-001
   37   0.0000000000000000E+000
   38   0.0000000000000000E+000
   39  -0.7860104205666897E-001
Sym= Ag
Ene=   51.3909
Spin= Alpha
Occup=  0.0000
    1   0.1028420044425462E-001
    2  -0.1553270535946560E-001
    3  -0.4008670886771076E-001
    4  -0.2495574984337759E+000
    5   0.0000000000000000E+000
    6   0.0000000000000000E+000
    7   0.0000000000000000E+000
    8   0.0000000000000000E+000
    9   0.0000000000000000E+000
   10   0.0000000000000000E+000
   11   0.0000000000000000E+000
   12   0.0000000000000000E+000
   13   0.0000000000000000E+000
   14  -0.1588839999246793E+001
   15   0.1650405156191908E+001
   16  -0.1996654288556929E+000
   17   0.2602996388680500E+000
   18   0.0000000000000000E+000
   19   0.0000000000000000E+000
   20  -0.4033847706612302E-002
   21   0.0000000000000000E+000
   22   0.0000000000000000E+000
   23   0.1615114781597946E-001
   24   0.0000000000000000E+000
   25   0.0000000000000000E+000
   26  -0.8944124956898185E-001
   27  -0.1588839999246793E+001
   28   0.1650405156191908E+001
   29  -0.1996654288556929E+000
   30   0.2602996388680500E+000
   31   0.0000000000000000E+000
   32   0.0000000000000000E+000
   33   0.4033847706612302E-002
   34   0.0000000000000000E+000
   35   0.0000000000000000E+000
   36  -0.1615114781597946E-001
   37   0.0000000000000000E+000
   38   0.0000000000000000E+000
   39   0.8944124956898185E-001
Sym= B3u
Ene=   -0.7334
Spin= Alpha
Occup=  2.0000
    1   0.0000000000000000E+000
    2   0.0000000000000000E+000
    3   0.0000000000000000E+000
    4   0.0000000000000000E+000
    5   0.1600563144219280E+000
    6   0.0000000000000000E+000
    7   0.0000000000000000E+000
    8   0.2887713366412342E+000
    9   0.0000000000000000E+000
   10   0.0000000000000000E+000
   11   0.1247484074928774E+000
   12   0.0000000000000000E+000
   13   0.0000000000000000E+000
   14   0.0000000000000000E+000
   15   0.0000000000000000E+000
   16   0.0000000000000000E+000
   17   0.0000000000000000E+000
   18   0.1595787367598338E+000
   19   0.0000000000000000E+000
   20   0.0000000000000000E+000
   21   0.2568642857186105E+000
   22   0.0000000000000000E+000
   23   0.0000000000000000E+000
   24   0.1839299731759318E+000
   25   0.0000000000000000E+000
   26   0.0000000000000000E+000
   27   0.0000000000000000E+000
   28   0.0000000000000000E+000
   29   0.0000000000000000E+000
   30   0.0000000000000000E+000
   31   0.1595787367598338E+000
   32   0.0000000000000000E+000
   33   0.0000000000000000E+000
   34   0.2568642857186105E+000
   35   0.0000000000000000E+000
   36   0.0000000000000000E+000
   37   0.1839299731759318E+000
   38   0.0000000000000000E+000
   39   0.0000000000000000E+000
Sym= B3u
Ene=    0.1776
Spin= Alpha
Occup=  0.0000
    1   0.0000000000000000E+000
    2   0.0000000000000000E+000
    3   0.0000000000000000E+000
    4   0.0000000000000000E+000
    5   0.2261223243361146E+000
    6   0.0000000000000000E+000
    7   0.0000000000000000E+000
    8   0.4227958415338416E+000
    9   0.0000000000000000E+000
   10   0.0000000000000000E+000
   11   0.7590047096832601E+000
   12   0.0000000000000000E+000
   13   0.0000000000000000E+000
   14   0.0000000000000000E+000
   15   0.0000000000000000E+000
   16   0.0000000000000000E+000
   17   0.0000000000000000E+000
   18  -0.1587117435221435E+000
   19   0.0000000000000000E+000
   20   0.0000000000000000E+000
   21  -0.2260226155817560E+000
   22   0.0000000000000000E+000
   23   0.0000000000000000E+000
   24  -0.4651463330289701E+000
   25   0.0000000000000000E+000
   26   0.0000000000000000E+000
   27   0.0000000000000000E+000
   28   0.0000000000000000E+000
   29   0.0000000000000000E+000
   30   0.0000000000000000E+000
   31  -0.1587117435221435E+000
   32   0.0000000000000000E+000
   33   0.0000000000000000E+000
   34  -0.2260226155817560E+000
   35   0.0000000000000000E+000
   36   0.0000000000000000E+000
   37  -0.4651463330289701E+000
   38   0.0000000000000000E+000
   39   0.0000000000000000E+000
Sym= B3u
Ene=    0.4930
Spin= Alpha
Occup=  0.0000
    1   0.0000000000000000E+000
    2   0.0000000000000000E+000
    3   0.0000000000000000E+000
    4   0.0000000000000000E+000
    5   0.2003782671604260E+000
    6   0.0000000000000000E+000
    7   0.0000000000000000E+000
    8   0.8738713029746077E+000
    9   0.0000000000000000E+000
   10   0.0000000000000000E+000
   11  -0.1337245407398618E+001
   12   0.0000000000000000E+000
   13   0.0000000000000000E+000
   14   0.0000000000000000E+000
   15   0.0000000000000000E+000
   16   0.0000000000000000E+000
   17   0.0000000000000000E+000
   18   0.1536326061226310E-001
   19   0.0000000000000000E+000
   20   0.0000000000000000E+000
   21   0.3072959894139322E-001
   22   0.0000000000000000E+000
   23   0.0000000000000000E+000
   24   0.1233631571519850E+000
   25   0.0000000000000000E+000
   26   0.0000000000000000E+000
   27   0.0000000000000000E+000
   28   0.0000000000000000E+000
   29   0.0000000000000000E+000
   30   0.0000000000000000E+000
   31   0.1536326061226310E-001
   32   0.0000000000000000E+000
   33   0.0000000000000000E+000
   34   0.3072959894139322E-001
   35   0.0000000000000000E+000
   36   0.0000000000000000E+000
   37   0.1233631571519850E+000
   38   0.0000000000000000E+000
   39   0.0000000000000000E+000
Sym= B3u
Ene=    1.1643
Spin= Alpha
Occup=  0.0000
    1   0.0000000000000000E+000
    2   0.0000000000000000E+000
    3   0.0000000000000000E+000
    4   0.0000000000000000E+000
    5  -0.8715107574451604E-001
    6   0.0000000000000000E+000
    7   0.0000000000000000E+000
    8   0.1710033910768113E-001
    9   0.0000000000000000E+000
   10   0.0000000000000000E+000
   11   0.1088389709209469E+001
   12   0.0000000000000000E+000
   13   0.0000000000000000E+000
   14   0.0000000000000000E+000
   15   0.0000000000000000E+000
   16   0.0000000000000000E+000
   17   0.0000000000000000E+000
   18   0.1592321712947050E+000
   19   0.0000000000000000E+000
   20   0.0000000000000000E+000
   21   0.6119555712141147E+000
   22   0.0000000000000000E+000
   23   0.0000000000000000E+000
   24  -0.1273314050898334E+001
   25   0.0000000000000000E+000
   26   0.0000000000000000E+000
   27   0.0000000000000000E+000
   28   0.0000000000000000E+000
   29   0.0000000000000000E+000
   30   0.0000000000000000E+000
   31   0.1592321712947050E+000
   32   0.0000000000000000E+000
   33   0.0000000000000000E+000
   34   0.6119555712141147E+000
   35   0.0000000000000000E+000
   36   0.0000000000000000E+000
   37  -0.1273314050898334E+001
   38   0.0000000000000000E+000
   39   0.0000000000000000E+000
Sym= B3u
Ene=    2.8134
Spin= Alpha
Occup=  0.0000
    1   0.0000000000000000E+000
    2   0.0000000000000000E+000
    3   0.0000000000000000E+000
    4   0.0000000000000000E+000
    5  -0.1316274389544922E+001
    6   0.0000000000000000E+000
    7   0.0000000000000000E+000
    8   0.1440880624497595E+001
    9   0.0000000000000000E+000
   10   0.0000000000000000E+000
   11  -0.6082486881321126E+000
   12   0.0000000000000000E+000
   13   0.0000000000000000E+000
   14   0.0000000000000000E+000
   15   0.0000000000000000E+000
   16   0.0000000000000000E+000
   17   0.0000000000000000E+000