[Molden Format]
[Atoms] AU
O          1     8         0.0000000000         0.0000000000         0.2216648745
H_1        2     1         0.0000000000         1.4309006218        -0.8866594978
H_2        3     1         0.0000000000        -1.4309006218        -0.8866594978
[GTO]
    1 0
 s  11 1.00
   0.8588500000000000E+04   0.1895150000000000E-02
   0.1297230000000000E+04   0.1438590000000000E-01
   0.2992960000000000E+03   0.7073200000000000E-01
   0.8737710000000000E+02   0.2400010000000000E+00
   0.2567890000000000E+02   0.5947970000000000E+00
   0.3740040000000000E+01   0.2808020000000000E+00
   0.4211750000000000E+02   0.0000000000000000E+00
   0.9628370000000000E+01   0.0000000000000000E+00
   0.2853320000000000E+01   0.0000000000000000E+00
   0.9056610000000000E+00   0.0000000000000000E+00
   0.2556110000000000E+00   0.0000000000000000E+00
 s  11 1.00
   0.8588500000000000E+04   0.0000000000000000E+00
   0.1297230000000000E+04   0.0000000000000000E+00
   0.2992960000000000E+03   0.0000000000000000E+00
   0.8737710000000000E+02   0.0000000000000000E+00
   0.2567890000000000E+02   0.0000000000000000E+00
   0.3740040000000000E+01   0.0000000000000000E+00
   0.4211750000000000E+02   0.1138890000000000E+00
   0.9628370000000000E+01   0.9208110000000000E+00
   0.2853320000000000E+01  -0.3274470000000000E-02
   0.9056610000000000E+00   0.0000000000000000E+00
   0.2556110000000000E+00   0.0000000000000000E+00
 s  11 1.00
   0.8588500000000000E+04   0.0000000000000000E+00
   0.1297230000000000E+04   0.0000000000000000E+00
   0.2992960000000000E+03   0.0000000000000000E+00
   0.8737710000000000E+02   0.0000000000000000E+00
   0.2567890000000000E+02   0.0000000000000000E+00
   0.3740040000000000E+01   0.0000000000000000E+00
   0.4211750000000000E+02   0.0000000000000000E+00
   0.9628370000000000E+01   0.0000000000000000E+00
   0.2853320000000000E+01   0.0000000000000000E+00
   0.9056610000000000E+00   0.1000000000000000E+01
   0.2556110000000000E+00   0.0000000000000000E+00
 s  11 1.00
   0.8588500000000000E+04   0.0000000000000000E+00
   0.1297230000000000E+04   0.0000000000000000E+00
   0.2992960000000000E+03   0.0000000000000000E+00
   0.8737710000000000E+02   0.0000000000000000E+00
   0.2567890000000000E+02   0.0000000000000000E+00
   0.3740040000000000E+01   0.0000000000000000E+00
   0.4211750000000000E+02   0.0000000000000000E+00
   0.9628370000000000E+01   0.0000000000000000E+00
   0.2853320000000000E+01   0.0000000000000000E+00
   0.9056610000000000E+00   0.0000000000000000E+00
   0.2556110000000000E+00   0.1000000000000000E+01
 p   5 1.00
   0.4211750000000000E+02   0.3651140000000000E-01
   0.9628370000000000E+01   0.2371530000000000E+00
   0.2853320000000000E+01   0.8197020000000000E+00
   0.9056610000000000E+00   0.0000000000000000E+00
   0.2556110000000000E+00   0.0000000000000000E+00
 p   5 1.00
   0.4211750000000000E+02   0.0000000000000000E+00
   0.9628370000000000E+01   0.0000000000000000E+00
   0.2853320000000000E+01   0.0000000000000000E+00
   0.9056610000000000E+00   0.1000000000000000E+01
   0.2556110000000000E+00   0.0000000000000000E+00
 p   5 1.00
   0.4211750000000000E+02   0.0000000000000000E+00
   0.9628370000000000E+01   0.0000000000000000E+00
   0.2853320000000000E+01   0.0000000000000000E+00
   0.9056610000000000E+00   0.0000000000000000E+00
   0.2556110000000000E+00   0.1000000000000000E+01

    2 0
 s   5 1.00
   0.3386500000000000E+02   0.2549380000000000E-01
   0.5094790000000000E+01   0.1903730000000000E+00
   0.1158790000000000E+01   0.8521609999999999E+00
   0.3258400000000000E+00   0.0000000000000000E+00
   0.1027410000000000E+00   0.0000000000000000E+00
 s   5 1.00
   0.3386500000000000E+02   0.0000000000000000E+00
   0.5094790000000000E+01   0.0000000000000000E+00
   0.1158790000000000E+01   0.0000000000000000E+00
   0.3258400000000000E+00   0.1000000000000000E+01
   0.1027410000000000E+00   0.0000000000000000E+00
 s   5 1.00
   0.3386500000000000E+02   0.0000000000000000E+00
   0.5094790000000000E+01   0.0000000000000000E+00
   0.1158790000000000E+01   0.0000000000000000E+00
   0.3258400000000000E+00   0.0000000000000000E+00
   0.1027410000000000E+00   0.1000000000000000E+01

    3 0
 s   5 1.00
   0.3386500000000000E+02   0.2549380000000000E-01
   0.5094790000000000E+01   0.1903730000000000E+00
   0.1158790000000000E+01   0.8521609999999999E+00
   0.3258400000000000E+00   0.0000000000000000E+00
   0.1027410000000000E+00   0.0000000000000000E+00
 s   5 1.00
   0.3386500000000000E+02   0.0000000000000000E+00
   0.5094790000000000E+01   0.0000000000000000E+00
   0.1158790000000000E+01   0.0000000000000000E+00
   0.3258400000000000E+00   0.1000000000000000E+01
   0.1027410000000000E+00   0.0000000000000000E+00
 s   5 1.00
   0.3386500000000000E+02   0.0000000000000000E+00
   0.5094790000000000E+01   0.0000000000000000E+00
   0.1158790000000000E+01   0.0000000000000000E+00
   0.3258400000000000E+00   0.0000000000000000E+00
   0.1027410000000000E+00   0.1000000000000000E+01

[SCFCONV]
scf-first  1  THROUGH   9
      -75.8229510366
      -75.9943768427
      -76.0085365050
      -76.0093137139
      -76.0093584158
      -76.0093606675
      -76.0093608004
      -76.0093608016
      -76.0093608016
[TITLE]
*** Dalton interface to Molden, wave function type : HF             5Jun25   21:
[5D7F]
[9G]
[MO]
Sym= A1
Ene=  -20.5533
Spin= Alpha
Occup=  2.0000
    1   0.5514488468329014E+000
    2   0.4716820564466621E+000
    3   0.5480812402698662E-002
    4  -0.1440048950712157E-003
    5   0.0000000000000000E+000
    6   0.0000000000000000E+000
    7  -0.2542853617189806E-002
    8   0.0000000000000000E+000
    9   0.0000000000000000E+000
   10   0.9348608931746547E-003
   11   0.0000000000000000E+000
   12   0.0000000000000000E+000
   13  -0.3532719366933893E-003
   14   0.2082351726850582E-003
   15  -0.1187186658758610E-003
   16   0.1011893930819157E-003
   17   0.2082351726850582E-003
   18  -0.1187186658758610E-003
   19   0.1011893930819157E-003
Sym= A1
Ene=   -1.3586
Spin= Alpha
Occup=  2.0000
    1  -0.1131927604180421E+000
    2  -0.1899311677876736E+000
    3   0.5429210547060201E+000
    4   0.4408211083130373E+000
    5   0.0000000000000000E+000
    6   0.0000000000000000E+000
    7  -0.4178416415954900E-001
    8   0.0000000000000000E+000
    9   0.0000000000000000E+000
   10  -0.9301257313627490E-001
   11   0.0000000000000000E+000
   12   0.0000000000000000E+000
   13  -0.5582370605733086E-001
   14   0.9824821074633031E-001
   15   0.3852863000066459E-001
   16  -0.3835932790264780E-002
   17   0.9824821074633031E-001
   18   0.3852863000066459E-001
   19  -0.3835932790264780E-002
Sym= A1
Ene=   -0.5640
Spin= Alpha
Occup=  2.0000
    1  -0.4100222902028993E-001
    2  -0.6935652491185029E-001
    3   0.2115461507048478E+000
    4   0.2844633698009919E+000
    5   0.0000000000000000E+000
    6   0.0000000000000000E+000
    7   0.2515801882891573E+000
    8   0.0000000000000000E+000
    9   0.0000000000000000E+000
   10   0.3813504671854789E+000
   11   0.0000000000000000E+000
   12   0.0000000000000000E+000
   13   0.3811298181468029E+000
   14  -0.8876950508198181E-001
   15  -0.1080239784442558E+000
   16  -0.3132559877424189E-001
   17  -0.8876950508198181E-001
   18  -0.1080239784442558E+000
   19  -0.3132559877424189E-001
Sym= A1
Ene=    0.1411
Spin= Alpha
Occup=  0.0000
    1   0.3349370932157963E-001
    2   0.5477926437520464E-001
    3  -0.1055889180808642E+000
    4  -0.8542674520470683E+000
    5   0.0000000000000000E+000
    6   0.0000000000000000E+000
    7   0.7902005515734872E-001
    8   0.0000000000000000E+000
    9   0.0000000000000000E+000
   10   0.1321850300951195E+000
   11   0.0000000000000000E+000
   12   0.0000000000000000E+000
   13   0.2159266350498365E+000
   14   0.3717904697162944E-001
   15  -0.4174418999039185E-001
   16   0.8286460203354945E+000
   17   0.3717904697162944E-001
   18  -0.4174418999039185E-001
   19   0.8286460203354945E+000
Sym= A1
Ene=    0.5976
Spin= Alpha
Occup=  0.0000
    1  -0.3359250013060811E-001
    2  -0.5866380331507566E-001
    3   0.1505285940779995E+000
    4   0.1174204555061352E+001
    5   0.0000000000000000E+000
    6   0.0000000000000000E+000
    7  -0.1100563992526596E+000
    8   0.0000000000000000E+000
    9   0.0000000000000000E+000
   10  -0.1841913896291745E+000
   11   0.0000000000000000E+000
   12   0.0000000000000000E+000
   13  -0.9667186586231286E+000
   14  -0.7218370766492323E-001
   15  -0.1709935484372183E+001
   16   0.6410449538227089E+000
   17  -0.7218370766492323E-001
   18  -0.1709935484372183E+001
   19   0.6410449538227089E+000
Sym= A1
Ene=    1.0255
Spin= Alpha
Occup=  0.0000
    1   0.2039238035784014E-001
    2   0.3619316463900975E-001
    3  -0.1355202699296043E+000
    4  -0.3571425211766298E+000
    5   0.0000000000000000E+000
    6   0.0000000000000000E+000
    7  -0.2259295702090683E+000
    8   0.0000000000000000E+000
    9   0.0000000000000000E+000
   10  -0.8386000737079006E+000
   11   0.0000000000000000E+000
   12   0.0000000000000000E+000
   13   0.1406228466449057E+001
   14   0.4894089284313748E-001
   15   0.3258820962482195E+000
   16   0.6775523501110148E-001
   17   0.4894089284313748E-001
   18   0.3258820962482195E+000
   19   0.6775523501110148E-001
Sym= A1
Ene=    1.4352
Spin= Alpha
Occup=  0.0000
    1   0.1180361157947726E+000
    2   0.2494968655409248E+000
    3  -0.1818721161586804E+001
    4   0.2882824817672788E+001
    5   0.0000000000000000E+000
    6   0.0000000000000000E+000
    7   0.4545026198308585E-001
    8   0.0000000000000000E+000
    9   0.0000000000000000E+000
   10   0.1401786232666750E+000
   11   0.0000000000000000E+000
   12   0.0000000000000000E+000
   13  -0.7858061810721384E+000
   14   0.1104634520680938E-002
   15  -0.6991703425345603E+000
   16  -0.3241038169445682E+000
   17   0.1104634520680938E-002
   18  -0.6991703425345603E+000
   19  -0.3241038169445682E+000
Sym= A1
Ene=    2.4645
Spin= Alpha
Occup=  0.0000
    1  -0.9536734423838233E-002
    2  -0.8732331703998099E-002
    3  -0.1092340182632923E+000
    4  -0.4412750837783037E+000
    5   0.0000000000000000E+000
    6   0.0000000000000000E+000
    7  -0.1583833599598094E+000
    8   0.0000000000000000E+000
    9   0.0000000000000000E+000
   10  -0.2041053207333286E-001
   11   0.0000000000000000E+000
   12   0.0000000000000000E+000
   13   0.3757632728217272E+000
   14  -0.1092557963055374E+001
   15   0.1584169499000160E+001
   16  -0.4938086594447797E+000
   17  -0.1092557963055374E+001
   18   0.1584169499000160E+001
   19  -0.4938086594447797E+000
Sym= A1
Ene=    5.4230
Spin= Alpha
Occup=  0.0000
    1   0.4486153757310462E-002
    2   0.1096642991884541E-001
    3  -0.7971791500095776E-001
    4   0.3289344719588424E+000
    5   0.0000000000000000E+000
    6   0.0000000000000000E+000
    7  -0.1272698232119996E+001
    8   0.0000000000000000E+000
    9   0.0000000000000000E+000
   10   0.1412067056410426E+001
   11   0.0000000000000000E+000
   12   0.0000000000000000E+000
   13  -0.6828161926528790E+000
   14   0.2271326640880194E+000
   15  -0.3497506924003110E+000
   16   0.1910236943346488E-001
   17   0.2271326640880194E+000
   18  -0.3497506924003110E+000
   19   0.1910236943346488E-001
Sym= A1
Ene=   51.4298
Spin= Alpha
Occup=  0.0000
    1  -0.2246444623081022E+001
    2   0.2329045198782365E+001
    3  -0.2440315571305354E+000
    4   0.2430274765445963E+000
    5   0.0000000000000000E+000
    6   0.0000000000000000E+000
    7  -0.4566621479972377E-002
    8   0.0000000000000000E+000
    9   0.0000000000000000E+000
   10   0.1433720930139417E-001
   11   0.0000000000000000E+000
   12   0.0000000000000000E+000
   13  -0.5117767684186361E-001
   14   0.5102582438421126E-002
   15  -0.4206566512857060E-001
   16  -0.3067850159980934E-001
   17   0.5102582438421126E-002
   18  -0.4206566512857060E-001
   19  -0.3067850159980934E-001
Sym= B1
Ene=   -0.5042
Spin= Alpha
Occup=  2.0000
    1   0.0000000000000000E+000
    2   0.0000000000000000E+000
    3   0.0000000000000000E+000
    4   0.0000000000000000E+000
    5   0.2933886822971847E+000
    6   0.0000000000000000E+000
    7   0.0000000000000000E+000
    8   0.4407584425646592E+000
    9   0.0000000000000000E+000
   10   0.0000000000000000E+000
   11   0.4867076075788011E+000
   12   0.0000000000000000E+000
   13   0.0000000000000000E+000
   14   0.0000000000000000E+000
   15   0.0000000000000000E+000
   16   0.0000000000000000E+000
   17   0.0000000000000000E+000
   18   0.0000000000000000E+000
   19   0.0000000000000000E+000
Sym= B1
Ene=    1.0001
Spin= Alpha
Occup=  0.0000
    1   0.0000000000000000E+000
    2   0.0000000000000000E+000
    3   0.0000000000000000E+000
    4   0.0000000000000000E+000
    5   0.2408216186896245E+000
    6   0.0000000000000000E+000
    7   0.0000000000000000E+000
    8   0.8366907873535602E+000
    9   0.0000000000000000E+000
   10   0.0000000000000000E+000
   11  -0.1136832322973186E+001
   12   0.0000000000000000E+000
   13   0.0000000000000000E+000
   14   0.0000000000000000E+000
   15   0.0000000000000000E+000
   16   0.0000000000000000E+000
   17   0.0000000000000000E+000
   18   0.0000000000000000E+000
   19   0.0000000000000000E+000
Sym= B1
Ene=    5.3056
Spin= Alpha
Occup=  0.0000
    1   0.0000000000000000E+000
    2   0.0000000000000000E+000
    3   0.0000000000000000E+000
    4   0.0000000000000000E+000
    5   0.1270086872363568E+001
    6   0.0000000000000000E+000
    7   0.0000000000000000E+000
    8  -0.1370214559021641E+001
    9   0.0000000000000000E+000
   10   0.0000000000000000E+000
   11   0.5239658907510509E+000
   12   0.0000000000000000E+000
   13   0.0000000000000000E+000
   14   0.0000000000000000E+000
   15   0.0000000000000000E+000
   16   0.0000000000000000E+000
   17   0.0000000000000000E+000
   18   0.0000000000000000E+000
   19   0.0000000000000000E+000
Sym= B2
Ene=   -0.7116
Spin= Alpha
Occup=  2.0000
    1   0.0000000000000000E+000
    2   0.0000000000000000E+000
    3   0.0000000000000000E+000
    4   0.0000000000000000E+000
    5   0.0000000000000000E+000
    6   0.2213705881007497E+000
    7   0.0000000000000000E+000
    8   0.0000000000000000E+000
    9   0.3680176739835486E+000
   10   0.0000000000000000E+000
   11   0.0000000000000000E+000
   12   0.2242291280305357E+000
   13   0.0000000000000000E+000
   14   0.1591598176316207E+000
   15   0.2002396210861898E+000
   16   0.5143149500593074E-001
   17  -0.1591598176316207E+000
   18  -0.2002396210861898E+000
   19  -0.5143149500593074E-001
Sym= B2
Ene=    0.2133
Spin= Alpha
Occup=  0.0000
    1   0.0000000000000000E+000
    2   0.0000000000000000E+000
    3   0.0000000000000000E+000
    4   0.0000000000000000E+000
    5   0.0000000000000000E+000
    6   0.1244693629679876E+000
    7   0.0000000000000000E+000
    8   0.0000000000000000E+000
    9   0.1444827933675722E+000
   10   0.0000000000000000E+000
   11   0.0000000000000000E+000
   12   0.5214973403600608E+000
   13   0.0000000000000000E+000
   14  -0.2446023229532409E-001
   15   0.1004005640218115E+000
   16  -0.1551700969236487E+001
   17   0.2446023229532409E-001
   18  -0.1004005640218115E+000
   19   0.1551700969236487E+001
Sym= B2
Ene=    0.5580
Spin= Alpha
Occup=  0.0000
    1   0.0000000000000000E+000
    2   0.0000000000000000E+000
    3   0.0000000000000000E+000
    4   0.0000000000000000E+000
    5   0.0000000000000000E+000
    6  -0.1288985726485661E+000
    7   0.0000000000000000E+000
    8   0.0000000000000000E+000
    9  -0.1927712202989866E+000
   10   0.0000000000000000E+000
   11   0.0000000000000000E+000
   12  -0.1079776143163828E+001
   13   0.0000000000000000E+000
   14   0.8540754483117406E-001
   15   0.1436217328893746E+001
   16  -0.7858788679903104E+000
   17  -0.8540754483117406E-001
   18  -0.1436217328893746E+001
   19   0.7858788679903104E+000
Sym= B2
Ene=    1.1512
Spin= Alpha
Occup=  0.0000
    1   0.0000000000000000E+000
    2   0.0000000000000000E+000
    3   0.0000000000000000E+000
    4   0.0000000000000000E+000
    5   0.0000000000000000E+000
    6  -0.2381565242492790E+000
    7   0.0000000000000000E+000
    8   0.0000000000000000E+000
    9  -0.9075208089776599E+000
   10   0.0000000000000000E+000
   11   0.0000000000000000E+000
   12   0.1703059033884341E+001
   13   0.0000000000000000E+000
   14  -0.2726067381830240E-001
   15  -0.1775780338722136E+000
   16  -0.7510615628205958E+000
   17   0.2726067381830240E-001
   18   0.1775780338722136E+000
   19   0.7510615628205958E+000
Sym= B2
Ene=    2.4989
Spin= Alpha
Occup=  0.0000
    1   0.0000000000000000E+000
    2   0.0000000000000000E+000
    3   0.0000000000000000E+000
    4   0.0000000000000000E+000
    5   0.0000000000000000E+000
    6  -0.1775766283115118E+000
    7   0.0000000000000000E+000
    8   0.0000000000000000E+000
    9   0.3578100668351023E-001
   10   0.0000000000000000E+000
   11   0.0000000000000000E+000
   12   0.2936488553385128E+000
   13   0.0000000000000000E+000
   14   0.1108230936239853E+001
   15  -0.1642217921031919E+001
   16   0.7936131308266512E+000
   17  -0.1108230936239853E+001
   18   0.1642217921031919E+001
   19  -0.7936131308266512E+000
Sym= B2
Ene=    5.5453
Spin= Alpha
Occup=  0.0000
    1   0.0000000000000000E+000
    2   0.0000000000000000E+000
    3   0.0000000000000000E+000
    4   0.0000000000000000E+000
    5   0.0000000000000000E+000
    6   0.1282812613845458E+001
    7   0.0000000000000000E+000
    8   0.0000000000000000E+000
    9  -0.1478335595031522E+001
   10   0.0000000000000000E+000
   11   0.0000000000000000E+000
   12   0.8046344979735964E+000
   13   0.0000000000000000E+000
   14   0.2579287640291734E+000
   15  -0.3085436258202414E+000
   16  -0.1624612940554309E+000
   17  -0.2579287640291734E+000
   18   0.3085436258202414E+000
   19   0.1624612940554309E+000
[End of Molden output from Dalton]
